Compounds,Total energy (eV),"Formation enthalpy (experiment, eV)",Element,Total energy (eV)
Ag2O,-69.44391464,-0.11,Ag,-31.39652948
Ag2O2,-75.9695899,-0.06,Al,-7.73443733
Ag2S,-72.68163789,-0.11,As,-20.19399038
Ag2Se,-83.12198625,-0.15,Au,-69.21177497
Al2S3,-50.62639555,-1.5,Co,-16.77604617
Al2Se3,-80.62253931,-1.18,Cr,-18.32767391
Al2Te3,-129.7344279,-0.68,Cu,-15.13653834
AuCl,-77.64421878,-0.18,F,-3.45126813
AuCl3,-94.58189599,-0.3,Fe,-17.20348363
AuF3,-84.25454863,-0.94,Ga,-16.33990841
BaO2,-58.21606331,-2.19,Hf,-62.78847013
BeS,-16.48000778,-1.21,Ir,-71.28989928
CaCl2,-33.56536086,-2.75,La,-43.12030669
CaS,-24.154766,-2.45,Mn,-18.08127466
CdCl2,-50.13162406,-1.35,Nb,-33.09446515
CdF2,-44.70631531,-2.42,Ni,-15.98104733
CdSb,-67.80566233,-0.07,Pd,-32.79107784
CdSe,-51.87494939,-0.75,Pt,-70.26605295
Cd3As2,-132.2205795,-0.08,Rh,-33.82977249
CoF2,-31.05186258,-2.39,Sc,-14.12980218
CoF3,-35.95658114,-2.1,Se,-20.07549033
CoO,-25.85765549,-1.23,Si,-10.00748473
CoS,-27.53340921,-0.43,Sn,-35.87419984
CoSb3,-129.7414768,-0.17,Sr,-22.26143523
CoSe,-37.72740545,-0.32,Ta,-66.65462944
Co3O4,-87.18812318,-1.32,Te,-37.25294991
Co3S4,-94.37743414,-0.53,Ti,-15.97795782
CrF4,-46.02078781,-2.58,V,-17.39402757
CrN,-29.62984035,-0.65,Y,-27.8171477
CrO2,-37.4876027,-2.07,Zn,-12.95709504
CrS,-29.67531649,-0.81,Zr,-30.69774089
Cr2O3,-68.05462236,-2.36,,
CuF2,-27.68209499,-1.88,,
CuO,-22.97145861,-0.82,,
CuS,-25.30744699,-0.28,,
CuSe,-35.54371022,-0.21,,
Cu2O,-37.98669209,-0.58,,
Cu2S,-40.46709918,-0.28,,
Cu2Sb,-67.5738382,-0.04,,
Cu2Se,-50.55059195,-0.21,,
Cu2Te,-67.30327942,0.07,,
Cu3N,-53.78653319,0.19,,
Cu3P,-55.96134132,-0.17,,
Cu3Sb,-82.41009856,-0.02,,
FeF2,-32.17730231,-2.46,,
FeO,-26.82076317,-1.41,,
FeS,-28.68295827,-0.52,,
FeSe,-38.81809247,-0.39,,
Fe2O3,-63.39247107,-1.71,,
Fe3O4,-90.46586043,-1.66,,
HfN,-76.06853534,-1.91,,
HfO2,-86.92959984,-3.95,,
IrO2,-86.40898708,-0.95,,
IrS2,-92.01403652,-0.48,,
Ir2S3,-173.7290794,-0.49,,
LaCl3,-77.93721491,-2.78,,
LaN,-55.61039453,-1.57,,
LaS,-57.60203033,-2.36,,
La2O3,-123.7647246,-3.72,,
La2S3,-127.7246425,-2.51,,
La2Te3,-206.9573324,-1.63,,
MnO,-28.30689739,-2,,
MnS,-30.06838448,-1.11,,
MnS2,-39.94721399,-0.72,,
MnSb,-56.07848884,-0.26,,
Mn2O3,-65.88361678,-1.99,,
Mn3O4,-94.74159211,-2.05,,
NbN,-44.88417479,-1.22,,
NbO2,-53.55394226,-2.75,,
Nb2O5,-116.4496641,-2.81,,
NiF2,-30.10295074,-2.25,,
NiO,-24.84315439,-1.24,,
NiS,-26.68799758,-0.43,,
NiSb,-53.98535181,-0.34,,
NiSe,-36.83390276,-0.31,,
NiTe,-53.79571728,-0.28,,
Ni2O3,-55.58831719,-1.01,,
Ni2Te3,-145.0049476,-0.3,,
Ni3P,-60.482048,-0.54,,
Ni3S2,-69.71798291,-0.42,,
PdCl2,-50.5726537,-0.69,,
PdO,-40.32456607,-0.44,,
PdS,-43.40610479,-0.39,,
PdS2,-53.15026587,-0.28,,
Pd4S,-141.8849625,-0.14,,
PtO,-77.26113058,-0.37,,
PtO2,-84.84671284,-0.57,,
PtS,-81.0238255,-0.42,,
PtS2,-91.08510749,-0.38,,
Pt3O4,-240.1280213,-0.4,,
RhCl3,-61.0047443,-0.78,,
RhO2,-49.31790224,-0.85,,
Rh2O3,-91.1468195,-0.84,,
Rh2S3,-99.65494051,-0.54,,
ScAs,-37.42982576,-1.39,,
ScCl3,-47.48664575,-2.4,,
ScF3,-41.65610694,-4.22,,
Sc2O3,-66.59538514,-3.94,,
TaN,-78.60743565,-1.3,,
TaS2,-89.29166249,-1.22,,
TiAs,-38.15611583,-0.78,,
TiCl4,-56.32012601,-1.7,,
TiN,-29.07915714,-1.58,,
TiO2,-38.06428358,-3.26,,
TiS,-28.82132811,-1.41,,
TiS2,-39.54095241,-1.41,,
Ti2O3,-66.18419016,-3.15,,
VF4,-46.37385373,-2.91,,
VN,-29.32824826,-1.13,,
VO,-28.15367664,-2.24,,
VO2,-37.58711388,-2.47,,
V2O3,-66.66866823,-2.53,,
V2O5,-82.34595026,-2.29,,
YAs,-51.56272806,-1.68,,
YCl3,-61.95403856,-2.59,,
YF3,-56.31034409,-4.45,,
Y2O3,-94.03609435,-3.95,,
ZrN,-43.9860881,-1.89,,
ZrO2,-54.55203703,-3.8,,
ZrS2,-55.30101891,-1.96,,