Compounds,Total energy (eV),"Formation enthalpy (experiment, eV)",Element,Total energy (eV)
Ag2O,-67.79822767,-0.11,Ag,-30.52927095
Ag2O2,-74.12923815,-0.06,Al,-7.73443733
Ag2S,-71.09878532,-0.11,As,-20.19399038
Ag2Se,-81.5628843,-0.15,Au,-67.95332567
Al2S3,-50.62639555,-1.5,Co,-14.45249183
Al2Se3,-80.62253931,-1.18,Cr,-15.41608732
Al2Te3,-129.7344279,-0.68,Cu,-14.28105036
AuCl,-76.45169825,-0.18,F,-3.45126813
AuCl3,-93.31024312,-0.3,Fe,-14.44872162
AuF3,-83.07685662,-0.94,Ga,-16.33990841
BaO2,-58.21606331,-2.19,Hf,-60.83803731
BeS,-16.48000778,-1.21,Ir,-68.78334456
CaCl2,-33.56536086,-2.75,La,-42.21634973
CaS,-24.154766,-2.45,Mn,-14.99871511
CdCl2,-50.13162406,-1.35,Nb,-30.47921691
CdF2,-44.70631531,-2.42,Ni,-14.35703651
CdSb,-67.80566233,-0.07,Pd,-31.3404552
CdSe,-51.87494939,-0.75,Pt,-68.44524483
Cd3As2,-132.2205795,-0.08,Rh,-31.50007897
CoF2,-30.59895466,-2.39,Sc,-12.92093401
CoF3,-35.22032853,-2.1,Se,-20.07549033
CoO,-25.10273218,-1.23,Si,-10.00748473
CoS,-26.50214095,-0.43,Sn,-35.87419984
CoSb3,-127.5679642,-0.17,Sr,-22.26143523
CoSe,-36.69089761,-0.32,Ta,-63.89209502
Co3O4,-82.79061443,-1.32,Te,-37.25294991
Co3S4,-89.79653649,-0.53,Ti,-13.78000977
CrF4,-43.75448826,-2.58,V,-14.56099939
CrN,-28.09515804,-0.65,Y,-26.91472135
CrO2,-35.49044714,-2.07,Zn,-12.95709504
CrS,-28.5335944,-0.81,Zr,-29.10349777
Cr2O3,-65.33002587,-2.36,,
CuF2,-27.27091259,-1.88,,
CuO,-22.33382451,-0.82,,
CuS,-24.49775045,-0.28,,
CuSe,-34.73577405,-0.21,,
Cu2O,-36.42804545,-0.58,,
Cu2S,-38.93743343,-0.28,,
Cu2Sb,-65.90047175,-0.04,,
Cu2Se,-49.02700815,-0.21,,
Cu2Te,-65.68886292,0.07,,
Cu3N,-51.42050302,0.19,,
Cu3P,-53.52028447,-0.17,,
Cu3Sb,-79.95044511,-0.02,,
FeF2,-31.69590936,-2.46,,
FeO,-26.14300964,-1.41,,
FeS,-27.48313009,-0.52,,
FeSe,-37.53128959,-0.39,,
Fe2O3,-61.48253306,-1.71,,
Fe3O4,-87.50137674,-1.66,,
HfN,-73.80537707,-1.91,,
HfO2,-84.95291639,-3.95,,
IrO2,-84.26919915,-0.95,,
IrS2,-89.79301833,-0.48,,
Ir2S3,-169.4473326,-0.49,,
LaCl3,-77.42734128,-2.78,,
LaN,-54.89447432,-1.57,,
LaS,-56.81740958,-2.36,,
La2O3,-122.3980904,-3.72,,
La2S3,-126.4902757,-2.51,,
La2Te3,-205.676976,-1.63,,
MnO,-27.74512289,-2,,
MnS,-29.37704763,-1.11,,
MnS2,-38.35543118,-0.72,,
MnSb,-55.01282099,-0.26,,
Mn2O3,-63.62389507,-1.99,,
Mn3O4,-91.77759069,-2.05,,
NbN,-42.30266429,-1.22,,
NbO2,-51.25891516,-2.75,,
Nb2O5,-111.7081351,-2.81,,
NiF2,-29.68981472,-2.25,,
NiO,-24.33371254,-1.24,,
NiS,-25.52720666,-0.43,,
NiSb,-52.47544485,-0.34,,
NiSe,-35.35413333,-0.31,,
NiTe,-52.24822837,-0.28,,
Ni2O3,-53.73991911,-1.01,,
Ni2Te3,-141.9886431,-0.3,,
Ni3P,-55.97480216,-0.54,,
Ni3S2,-65.24816633,-0.42,,
PdCl2,-49.35171506,-0.69,,
PdO,-39.13648249,-0.44,,
PdS,-42.08590555,-0.39,,
PdS2,-51.83171959,-0.28,,
Pd4S,-136.57024,-0.14,,
PtO,-75.79895569,-0.37,,
PtO2,-83.24357435,-0.57,,
PtS,-79.41595281,-0.42,,
PtS2,-89.36728544,-0.38,,
Pt3O4,-235.1375847,-0.4,,
RhCl3,-59.2734957,-0.78,,
RhO2,-47.33566743,-0.85,,
Rh2O3,-87.79123896,-0.84,,
Rh2S3,-95.68453671,-0.54,,
ScAs,-36.09532031,-1.39,,
ScCl3,-46.21727919,-2.4,,
ScF3,-40.17532986,-4.22,,
Sc2O3,-63.51462253,-3.94,,
TaN,-75.76570856,-1.3,,
TaS2,-86.55715283,-1.22,,
TiAs,-35.8693491,-0.78,,
TiCl4,-54.05637419,-1.7,,
TiN,-26.62288781,-1.58,,
TiO2,-35.86732131,-3.26,,
TiS,-26.46876847,-1.41,,
TiS2,-37.55980619,-1.41,,
Ti2O3,-61.76138011,-3.15,,
VF4,-44.31138371,-2.91,,
VN,-26.40449973,-1.13,,
VO,-27.07818755,-2.24,,
VO2,-35.21912601,-2.47,,
V2O3,-63.53904206,-2.53,,
V2O5,-76.80657212,-2.29,,
YAs,-50.63186785,-1.68,,
YCl3,-61.12394263,-2.59,,
YF3,-55.47853195,-4.45,,
Y2O3,-91.99054412,-3.95,,
ZrN,-42.30967649,-1.89,,
ZrO2,-53.1830858,-3.8,,
ZrS2,-53.92970911,-1.96,,