Compounds,Total energy (eV),"Formation enthalpy (experiment, eV)",Element,Total energy (eV)
Ag2O,-47.853257,-0.11,Ag,-20.67340679
Ag2O2,-53.89412072,-0.06,Al,-6.73109404
Ag2S,-49.83310695,-0.11,As,-14.7035291
Ag2Se,-56.17472392,-0.15,Au,-49.60477341
AlAs,-22.6911393,-0.61,Ba,-26.43243314
AlCl3,-31.94322735,-1.82,Be,-4.339623803
AlF3,-31.54347847,-3.9,Bi,-58.49761314
AlN,-19.22838222,-1.61,Ca,-7.03010808
AlP,-17.20697883,-0.85,Cd,-20.09410207
Al2O3,-48.13496321,-3.47,Cl,-6.051024105
Al2S3,-43.74128855,-1.5,Co,-10.86818464
Al2Se3,-61.42473055,-1.18,Cr,-12.39809567
Al2Te3,-92.4972848,-0.68,Cu,-10.13148112
AuCl,-56.31476845,-0.18,F,-3.06673375
AuCl3,-69.2998188,-0.3,Fe,-11.06691713
AuF3,-63.40414779,-0.94,Ga,-11.43824635
BaO,-37.82775833,-2.86,Ge,-13.85929885
BaO2,-44.53449564,-2.19,Hf,-43.57648997
BaS,-39.20655929,-2.38,Hg,-49.36530571
BeO,-16.29497044,-3.14,In,-22.58277901
BeS,-14.78384261,-1.21,Ir,-50.33325667
Be3N2,-37.46760739,-1.22,K,-5.978287735
CaCl2,-27.26414916,-2.75,La,-28.9843886
CaF2,-25.954205,-4.21,Li,-2.340161603
CaO,-19.46082773,-3.29,Mg,-4.1482446
CaS,-19.93150237,-2.45,Mn,-11.84963054
Ca3N2,-44.13852461,-0.91,N,-9.0729491
Ca3P2,-43.41089333,-1.22,Na,-3.54078997
CdCl2,-36.2162154,-1.35,Nb,-22.61147251
CdF2,-33.72115745,-2.42,Ni,-10.51208815
CdO,-28.56032489,-1.34,O,-5.93354306
CdS,-29.68661872,-0.78,P,-8.999011531
CdSb,-46.00400005,-0.07,Pd,-21.78196153
CdSe,-35.91046478,-0.75,Pt,-50.03529041
CdTe,-46.64078238,-0.48,Rb,-13.91701303
Cd3As2,-90.57437822,-0.08,Rh,-22.2979257
Cd3N2,-76.42386678,0.33,S,-8.030800828
Cd3P2,-78.92341371,-0.24,Sb,-25.69456917
CoF2,-25.80659052,-2.39,Sc,-10.33684341
CoF3,-30.20969485,-2.1,Se,-14.30663755
CoO,-20.84450068,-1.23,Si,-8.77408201
CoS,-21.00102269,-0.43,Sn,-24.74088779
CoSb3,-89.18775373,-0.17,Sr,-15.08917751
CoSe,-27.07460266,-0.32,Ta,-46.43879649
Co3O4,-69.61813875,-1.32,Te,-25.41102183
Co3S4,-71.62399592,-0.53,Ti,-11.12681117
CrF4,-38.94334058,-2.58,V,-11.79791206
CrN,-24.54135288,-0.65,Y,-19.53270311
CrO2,-31.72127716,-2.07,Zn,-8.37150127
CrS,-23.76529915,-0.81,Zr,-21.4738174
Cr2O3,-57.62728345,-2.36,,
CuF2,-22.12085473,-1.88,,
CuO,-17.77373748,-0.82,,
CuS,-18.76216122,-0.28,,
CuSe,-24.86509994,-0.21,,
Cu2O,-27.85014581,-0.58,,
Cu2S,-29.06270715,-0.28,,
Cu2Sb,-45.94323542,-0.04,,
Cu2Se,-35.03140742,-0.21,,
Cu2Te,-45.55370138,0.07,,
Cu3N,-38.80803589,0.19,,
Cu3P,-39.67215168,-0.17,,
Cu3Sb,-55.82858812,-0.02,,
FeF2,-27.2791829,-2.46,,
FeO,-22.24107382,-1.41,,
FeS,-22.30320005,-0.52,,
FeSe,-28.35135028,-0.39,,
Fe2O3,-53.48654893,-1.71,,
Fe3O4,-75.70292494,-1.66,,
GaAs,-27.05263488,-0.37,,
GaCl3,-34.76295456,-1.36,,
GaF3,-32.23640221,-3.01,,
GaN,-21.91163549,-0.81,,
GaP,-21.46218592,-0.53,,
GaS,-21.00064428,-1.09,,
GaSb,-37.60232099,-0.22,,
GaSe,-27.12977213,-0.83,,
Ga2O3,-51.22373047,-2.26,,
Ga2S3,-50.96335135,-1.07,,
Ga2Se3,-69.30932577,-0.85,,
GeO2,-31.29266482,-2,,
GeS,-22.37588225,-0.39,,
GeS2,-31.08826725,-0.66,,
GeSe,-28.56596839,-0.48,,
Ge3N4,-79.22499595,-0.09,,
HfN,-56.46546303,-1.91,,
HfO2,-67.19543508,-3.95,,
HgCl2,-63.71068952,-0.77,,
HgO,-56.05956831,-0.47,,
HgS,-57.73849016,-0.3,,
HgSe,-64.14678736,-0.24,,
HgTe,-75.16142931,-0.22,,
InAs,-38.03032562,-0.31,,
InN,-31.86535278,-0.1,,
InP,-32.22029132,-0.39,,
InS,-31.96252429,-0.7,,
InSb,-48.74388708,-0.16,,
InSe,-38.2379668,-0.62,,
InTe,-48.79022354,-0.5,,
In2O3,-72.4932795,-1.92,,
In2S3,-72.95163337,-0.74,,
In2Se3,-91.50499201,-0.67,,
In2Te3,-123.5889229,-0.41,,
IrO2,-65.27100549,-0.95,,
IrS2,-68.09905423,-0.48,,
Ir2S3,-127.7267722,-0.49,,
KCl,-16.44177066,-2.26,,
KF,-14.88090557,-2.94,,
KSb,-32.81082452,-0.43,,
KSb2,-58.54328741,-0.37,,
K2O,-21.35979939,-1.25,,
K2O2,-28.54282112,-1.28,,
K2S,-23.68744192,-1.31,,
K2S2,-32.36804712,-1.12,,
K2Se,-30.10841864,-1.36,,
K3As,-34.43706657,-0.48,,
K3Bi,-78.42566207,-0.6,,
K3Sb,-45.80478893,-0.47,,
K5Sb4,-137.822503,-0.44,,
LaCl3,-58.58143668,-2.78,,
LaN,-41.44316672,-1.57,,
LaS,-41.98566758,-2.36,,
La2O3,-94.9541589,-3.72,,
La2S3,-95.10907632,-2.51,,
La2Te3,-144.0256028,-1.63,,
LiCl,-12.50640409,-2.12,,
LiF,-11.8017838,-3.19,,
Li2O,-16.64844589,-2.07,,
Li2O2,-22.83301763,-1.64,,
Li2S,-17.21635771,-1.52,,
Li2Se,-23.27866749,-1.45,,
Li3Bi,-67.96576514,-0.6,,
Li3N,-17.99348265,-0.43,,
Li3Sb,-35.65861544,-0.83,,
MgCl2,-22.68551943,-2.21,,
MgF2,-21.9181612,-3.88,,
MgO,-16.16096383,-3.11,,
MgS,-15.50962516,-1.79,,
MgSe,-21.40457842,-1.52,,
MgTe,-31.67297462,-1.08,,
Mg3As2,-45.82071929,-0.91,,
Mg3Bi2,-130.8861353,-0.32,,
Mg3N2,-35.5548149,-0.96,,
Mg3P2,-34.51193208,-0.96,,
Mg3Sb2,-66.35371115,-0.49,,
MnO,-24.06155927,-2,,
MnS,-24.39202595,-1.11,,
MnS2,-31.80928645,-0.72,,
MnSb,-40.09519734,-0.26,,
Mn2O3,-55.93635903,-1.99,,
Mn3O4,-80.42624737,-2.05,,
NaCl,-13.82334869,-2.13,,
NaF,-12.73105686,-2.97,,
NaSb,-30.1675178,-0.33,,
NaTe3,-81.71091067,-0.35,,
Na2O,-17.39363629,-1.43,,
Na2O2,-24.20752518,-1.32,,
Na2S,-19.01689108,-1.26,,
Na2S2,-27.26830299,-1.03,,
Na2Se,-25.27981705,-1.18,,
Na2Se2,-39.78261856,-0.97,,
Na3As,-27.63181104,-0.53,,
Na3Bi,-71.17835311,-0.46,,
Na3Sb,-38.68473682,-0.53,,
NbN,-34.27552471,-1.22,,
NbO2,-42.80135841,-2.75,,
Nb2O5,-94.5824178,-2.81,,
NiF2,-24.51423033,-2.25,,
NiO,-19.6844936,-1.24,,
NiS,-19.81593675,-0.43,,
NiSb,-36.95256101,-0.34,,
NiSe,-25.73369189,-0.31,,
NiTe,-36.49585186,-0.28,,
Ni2O3,-44.30986317,-1.01,,
Ni2Te3,-98.56717465,-0.3,,
Ni3P,-42.93356498,-0.54,,
Ni3S2,-50.46004844,-0.42,,
PdCl2,-36.02246219,-0.69,,
PdO,-29.16597158,-0.44,,
PdS,-30.83896894,-0.39,,
PdS2,-38.97057635,-0.28,,
Pd4S,-96.63795854,-0.14,,
PtO,-57.06119798,-0.37,,
PtO2,-63.96803885,-0.57,,
PtS,-59.26894571,-0.42,,
PtS2,-67.46429509,-0.38,,
Pt3O4,-178.2177985,-0.4,,
RbCl,-24.38251288,-2.26,,
RbF,-22.76254034,-2.89,,
RbSb,-40.76290579,-0.52,,
RbSb2,-66.55527875,-0.35,,
Rb2O,-37.02740121,-1.17,,
Rb2O2,-44.35163098,-1.22,,
Rb2S,-39.47363292,-1.25,,
Rb3Sb,-69.48674448,-0.45,,
RhCl3,-44.32177524,-0.78,,
RhO2,-37.37732532,-0.85,,
Rh2O3,-67.99644869,-0.84,,
Rh2S3,-72.23087363,-0.54,,
ScAs,-28.14541661,-1.39,,
ScCl3,-38.08008588,-2.4,,
ScF3,-36.44272071,-4.22,,
Sc2O3,-57.53179109,-3.94,,
SiO2,-29.81042561,-3.13,,
SiS2,-27.08238334,-0.88,,
SiSe2,-38.940318,-0.61,,
Si3N4,-72.08365756,-1.1,,
SnO,-33.54247233,-1.48,,
SnO2,-42.47939059,-1.97,,
SnS,-33.7346473,-0.57,,
SnS2,-42.2841149,-0.53,,
SnSe,-39.96922653,-0.47,,
SnSe2,-54.67883095,-0.43,,
SrO,-27.056067,-3.07,,
SrO2,-33.3567148,-2.19,,
SrS,-28.02476874,-2.45,,
Sr2Bi,-91.47650336,-1.08,,
Sr2Sb,-59.03567134,-1.11,,
TaN,-58.22786763,-1.3,,
TaS2,-65.99936744,-1.22,,
TiAs,-27.84540186,-0.78,,
TiCl4,-44.07789335,-1.7,,
TiN,-23.83021432,-1.58,,
TiO2,-32.62542494,-3.26,,
TiS,-22.24014646,-1.41,,
TiS2,-31.64002593,-1.41,,
Ti2O3,-55.58435429,-3.15,,
VF4,-39.81672178,-2.91,,
VN,-23.49873128,-1.13,,
VO,-23.52549426,-2.24,,
VO2,-31.76191652,-2.47,,
V2O3,-56.45537872,-2.53,,
V2O5,-69.83761258,-2.29,,
YAs,-37.89385838,-1.68,,
YCl3,-48.20701155,-2.59,,
YF3,-46.88483348,-4.45,,
Y2O3,-76.39339541,-3.95,,
ZnCl2,-24.88434016,-1.43,,
ZnF2,-22.93915621,-2.64,,
ZnO,-18.17776522,-1.81,,
ZnP2,-27.39835804,-0.21,,
ZnS,-18.56469951,-1.07,,
ZnSb,-34.2449162,-0.08,,
ZnSe,-24.5538131,-0.85,,
ZnTe,-35.0223297,-0.61,,
Zn3As2,-55.97327076,-0.28,,
Zn3N2,-44.85086028,-0.05,,
Zn3P2,-44.83060163,-0.33,,
ZrN,-34.49637346,-1.89,,
ZrO2,-44.91955664,-3.8,,
ZrS2,-43.05729255,-1.96,,