Compounds,Total energy (eV),"Formation enthalpy (experiment, eV)",Element,Total energy (eV)
Ag2O,-47.54763503,-0.11,Ag,-20.51155619
Ag2O2,-53.5474386,-0.06,Al,-6.73109404
Ag2S,-49.5396438,-0.11,As,-14.7035291
Ag2Se,-55.88674137,-0.15,Au,-49.36856252
Al2S3,-43.74128855,-1.5,Co,-10.41373129
Al2Se3,-61.42473055,-1.18,Cr,-11.82400561
Al2Te3,-92.4972848,-0.68,Cu,-9.96675262
AuCl,-56.09015852,-0.18,F,-3.06673375
AuCl3,-69.05325378,-0.3,Fe,-10.51808883
AuF3,-63.17486946,-0.94,Ga,-11.43824635
BaO2,-44.53449564,-2.19,Hf,-43.21377539
BeS,-14.78384261,-1.21,Ir,-49.8360729
CaCl2,-27.26414916,-2.75,La,-28.82091513
CaS,-19.93150237,-2.45,Mn,-11.23633169
CdCl2,-36.2162154,-1.35,Nb,-22.10628549
CdF2,-33.72115745,-2.42,Ni,-10.20183029
CdSb,-46.00400005,-0.07,Pd,-21.51224545
CdSe,-35.91046478,-0.75,Pt,-49.68312951
Cd3As2,-90.57437822,-0.08,Rh,-21.8429157
CoF2,-25.72531727,-2.39,Sc,-10.1208448
CoF3,-30.07524814,-2.1,Se,-14.30663755
CoO,-20.7123592,-1.23,Si,-8.77408201
CoS,-20.82542982,-0.43,Sn,-24.74088779
CoSb3,-88.7630593,-0.17,Sr,-15.08917751
CoSe,-26.89670837,-0.32,Ta,-45.90460805
Co3O4,-69.03859732,-1.32,Te,-25.41102183
Co3S4,-70.72647504,-0.53,Ti,-10.70034598
CrF4,-38.57514712,-2.58,V,-11.23915329
CrN,-24.25103175,-0.65,Y,-19.37427159
CrO2,-31.33654256,-2.07,Zn,-8.37150127
CrS,-23.55091495,-0.81,Zr,-21.17047731
Cr2O3,-57.10236753,-2.36,,
CuF2,-22.04188773,-1.88,,
CuO,-17.6497755,-0.82,,
CuS,-18.60707933,-0.28,,
CuSe,-24.71127829,-0.21,,
Cu2O,-27.55403742,-0.58,,
Cu2S,-28.77303133,-0.28,,
Cu2Sb,-45.62491773,-0.04,,
Cu2Se,-34.74585114,-0.21,,
Cu2Te,-45.25066809,0.07,,
Cu3N,-38.35399691,0.19,,
Cu3P,-39.20978654,-0.17,,
Cu3Sb,-55.36373785,-0.02,,
FeF2,-27.1949538,-2.46,,
FeO,-22.12921287,-1.41,,
FeS,-22.12798955,-0.52,,
FeSe,-27.77265031,-0.39,,
Fe2O3,-53.14715733,-1.71,,
Fe3O4,-75.16122421,-1.66,,
HfN,-56.03157902,-1.91,,
HfO2,-66.8219067,-3.95,,
IrO2,-64.84101577,-0.95,,
IrS2,-67.6625591,-0.48,,
Ir2S3,-126.8903114,-0.49,,
LaCl3,-58.48683445,-2.78,,
LaN,-41.30892615,-1.57,,
LaS,-41.83787633,-2.36,,
La2O3,-94.6985832,-3.72,,
La2S3,-94.87846523,-2.51,,
La2Te3,-143.7903238,-1.63,,
MnO,-23.96023327,-2,,
MnS,-24.26977193,-1.11,,
MnS2,-31.52791653,-0.72,,
MnSb,-39.91843709,-0.26,,
Mn2O3,-55.51524815,-1.99,,
Mn3O4,-79.88120415,-2.05,,
NbN,-33.77439406,-1.22,,
NbO2,-42.36428919,-2.75,,
Nb2O5,-93.67022533,-2.81,,
NiF2,-24.44013811,-2.25,,
NiO,-19.59136609,-1.24,,
NiS,-19.58726781,-0.43,,
NiSb,-36.65968679,-0.34,,
NiSe,-25.44528604,-0.31,,
NiTe,-36.19259292,-0.28,,
Ni2O3,-43.94940847,-1.01,,
Ni2Te3,-97.96279345,-0.3,,
Ni3P,-42.06102715,-0.54,,
Ni3S2,-49.59184149,-0.42,,
PdCl2,-35.79443373,-0.69,,
PdO,-28.94690154,-0.44,,
PdS,-30.59238231,-0.39,,
PdS2,-38.7242437,-0.28,,
Pd4S,-95.67089544,-0.14,,
PtO,-56.78548364,-0.37,,
PtO2,-63.65375943,-0.57,,
PtS,-58.9586183,-0.42,,
PtS2,-67.12717407,-0.38,,
Pt3O4,-177.2425188,-0.4,,
RhCl3,-43.98222692,-0.78,,
RhO2,-36.99151665,-0.85,,
Rh2O3,-67.34140566,-0.84,,
Rh2S3,-71.45259187,-0.54,,
ScAs,-27.8981315,-1.39,,
ScCl3,-37.84319172,-2.4,,
ScF3,-36.1661234,-4.22,,
Sc2O3,-56.95576204,-3.94,,
TaN,-57.67530826,-1.3,,
TaS2,-65.46761522,-1.22,,
TiAs,-27.39981636,-0.78,,
TiCl4,-43.63679427,-1.7,,
TiN,-23.3478209,-1.58,,
TiO2,-32.19812716,-3.26,,
TiS,-21.7809865,-1.41,,
TiS2,-31.25624251,-1.41,,
Ti2O3,-54.74292752,-3.15,,
VF4,-39.41408028,-2.91,,
VN,-22.91960047,-1.13,,
VO,-23.33380732,-2.24,,
VO2,-31.32398544,-2.47,,
V2O3,-55.8803916,-2.53,,
V2O5,-68.74066928,-2.29,,
YAs,-37.72018108,-1.68,,
YCl3,-48.05195753,-2.59,,
YF3,-46.73083987,-4.45,,
Y2O3,-76.01093293,-3.95,,
ZrN,-34.17124269,-1.89,,
ZrO2,-44.65746116,-3.8,,
ZrS2,-42.7937587,-1.96,,