Compounds,Total energy (eV),"Formation enthalpy (experiment, eV)",Element,Total energy (eV)
Ag2O,-68.75599534,-0.11,Ag,-31.03473749
Ag2O2,-75.20527708,-0.06,Al,-7.73443733
Ag2S,-72.01875086,-0.11,As,-20.19399038
Ag2Se,-82.46832549,-0.15,Au,-68.69300763
Al2S3,-50.62639555,-1.5,Co,-15.81788414
Al2Se3,-80.62253931,-1.18,Cr,-17.14960934
Al2Te3,-129.7344279,-0.68,Cu,-14.78694766
AuCl,-77.15317013,-0.18,F,-3.45126813
AuCl3,-94.06277738,-0.3,Fe,-16.08483299
AuF3,-83.77244269,-0.94,Ga,-16.33990841
BaO2,-58.21606331,-2.19,Hf,-61.97958534
BeS,-16.48000778,-1.21,Ir,-70.26990777
CaCl2,-33.56536086,-2.75,La,-42.73311926
CaS,-24.154766,-2.45,Mn,-16.84255575
CdCl2,-50.13162406,-1.35,Nb,-32.02660943
CdF2,-44.70631531,-2.42,Ni,-15.31695772
CdSb,-67.80566233,-0.07,Pd,-32.17710337
CdSe,-51.87494939,-0.75,Pt,-69.51566082
Cd3As2,-132.2205795,-0.08,Rh,-32.88406161
CoF2,-30.8561933,-2.39,Sc,-13.61245769
CoF3,-35.64098624,-2.1,Se,-20.07549033
CoO,-25.5224754,-1.23,Si,-10.00748473
CoS,-27.06422384,-0.43,Sn,-35.87419984
CoSb3,-128.8572423,-0.17,Sr,-22.26143523
CoSe,-37.25944108,-0.32,Ta,-65.5348092
Co3O4,-84.51187238,-1.32,Te,-37.25294991
Co3S4,-92.45225217,-0.53,Ti,-15.08018016
CrF4,-44.87913353,-2.58,V,-16.25121517
CrN,-28.98772958,-0.65,Y,-27.42897237
CrO2,-36.65983968,-2.07,Zn,-12.95709504
CrS,-29.1982845,-0.81,Zr,-30.04002394
Cr2O3,-66.92860282,-2.36,,
CuF2,-27.50560401,-1.88,,
CuO,-22.70383491,-0.82,,
CuS,-24.9743499,-0.28,,
CuSe,-35.20955484,-0.21,,
Cu2O,-37.34386476,-0.58,,
Cu2S,-39.83145165,-0.28,,
Cu2Sb,-66.88296871,-0.04,,
Cu2Se,-49.9152275,-0.21,,
Cu2Te,-66.63255735,0.07,,
Cu3N,-52.81142263,0.19,,
Cu3P,-54.94995266,-0.17,,
Cu3Sb,-81.39655014,-0.02,,
FeF2,-31.96713284,-2.46,,
FeO,-26.50334873,-1.41,,
FeS,-28.08790812,-0.52,,
FeSe,-38.25852941,-0.39,,
Fe2O3,-62.56208407,-1.71,,
Fe3O4,-89.20072972,-1.66,,
HfN,-75.14324586,-1.91,,
HfO2,-86.11467501,-3.95,,
IrO2,-85.51668629,-0.95,,
IrS2,-91.10176446,-0.48,,
Ir2S3,-171.9661875,-0.49,,
LaCl3,-77.72215958,-2.78,,
LaN,-55.31044984,-1.57,,
LaS,-57.27313528,-2.36,,
La2O3,-123.1932882,-3.72,,
La2S3,-127.2039996,-2.51,,
La2Te3,-206.4135736,-1.63,,
MnO,-28.06579935,-2,,
MnS,-29.76786921,-1.11,,
MnS2,-39.27383932,-0.72,,
MnSb,-55.59763476,-0.26,,
Mn2O3,-64.93711912,-1.99,,
Mn3O4,-93.48849599,-2.05,,
NbN,-43.82904146,-1.22,,
NbO2,-52.60247914,-2.75,,
Nb2O5,-114.4997807,-2.81,,
NiF2,-29.92409926,-2.25,,
NiO,-24.62412876,-1.24,,
NiS,-26.18669113,-0.43,,
NiSb,-53.36747375,-0.34,,
NiSe,-36.22857377,-0.31,,
NiTe,-53.16094889,-0.28,,
Ni2O3,-54.79813583,-1.01,,
Ni2Te3,-143.7687493,-0.3,,
Ni3P,-58.63186451,-0.54,,
Ni3S2,-67.88788059,-0.42,,
PdCl2,-50.06015135,-0.69,,
PdO,-39.81961068,-0.44,,
PdS,-42.85270561,-0.39,,
PdS2,-52.59790944,-0.28,,
Pd4S,-139.6376388,-0.14,,
PtO,-76.65078547,-0.37,,
PtO2,-84.18830552,-0.57,,
PtS,-80.35799465,-0.42,,
PtS2,-90.38001718,-0.38,,
Pt3O4,-238.0721808,-0.4,,
RhCl3,-60.2983575,-0.78,,
RhO2,-48.46237048,-0.85,,
Rh2O3,-89.76324994,-0.84,,
Rh2S3,-98.03357126,-0.54,,
ScAs,-36.8716232,-1.39,,
ScCl3,-46.95784611,-2.4,,
ScF3,-41.03946732,-4.22,,
Sc2O3,-65.31055163,-3.94,,
TaN,-77.45755172,-1.3,,
TaS2,-88.18376814,-1.22,,
TiAs,-37.22742297,-0.78,,
TiCl4,-55.40136016,-1.7,,
TiN,-28.08391879,-1.58,,
TiO2,-37.16914811,-3.26,,
TiS,-27.86466352,-1.41,,
TiS2,-38.72681665,-1.41,,
Ti2O3,-64.34721357,-3.15,,
VF4,-45.53325036,-2.91,,
VN,-28.15282248,-1.13,,
VO,-27.68716684,-2.24,,
VO2,-36.57631447,-2.47,,
V2O3,-65.31402138,-2.53,,
V2O5,-80.11044943,-2.29,,
YAs,-51.17072491,-1.68,,
YCl3,-61.60645949,-2.59,,
YF3,-55.96102626,-4.45,,
Y2O3,-93.18149258,-3.95,,
ZrN,-43.30125887,-1.89,,
ZrO2,-53.98835372,-3.8,,
ZrS2,-54.73669141,-1.96,,