Compounds,Total energy (eV),"Formation enthalpy (experiment, eV)",Element,Total energy (eV)
Ag2O,-49.17608946,-0.11,Ag,-21.37036908
Ag2O2,-55.37274843,-0.06,Al,-6.73109404
Ag2S,-51.10733609,-0.11,As,-14.7035291
Ag2Se,-57.42674946,-0.15,Au,-50.6025112
Al2S3,-43.74128855,-1.5,Co,-12.74732574
Al2Se3,-61.42473055,-1.18,Cr,-14.75145319
Al2Te3,-92.4972848,-0.68,Cu,-10.824357
AuCl,-57.26023044,-0.18,F,-3.06673375
AuCl3,-70.3208093,-0.3,Fe,-13.30918199
AuF3,-64.35778744,-0.94,Ga,-11.43824635
BaO2,-44.53449564,-2.19,Hf,-45.12115942
BeS,-14.78384261,-1.21,Ir,-52.3773649
CaCl2,-27.26414916,-2.75,La,-29.72399311
CaS,-19.93150237,-2.45,Mn,-14.3221074
CdCl2,-36.2162154,-1.35,Nb,-24.70876654
CdF2,-33.72115745,-2.42,Ni,-11.82322931
CdSb,-46.00400005,-0.07,Pd,-22.94555671
CdSe,-35.91046478,-0.75,Pt,-51.51702777
Cd3As2,-90.57437822,-0.08,Rh,-24.16743094
CoF2,-26.18056404,-2.39,Sc,-11.30690795
CoF3,-30.81707827,-2.1,Se,-14.30663755
CoO,-21.48535843,-1.23,Si,-8.77408201
CoS,-21.95557931,-0.43,Sn,-24.74088779
CoSb3,-90.93682282,-0.17,Sr,-15.08917751
CoSe,-27.97026513,-0.32,Ta,-48.62758038
Co3O4,-73.15768991,-1.32,Te,-25.41102183
Co3S4,-75.56237026,-0.53,Ti,-12.89256991
CrF4,-40.4783117,-2.58,V,-14.06448075
CrN,-25.79561584,-0.65,Y,-20.26510647
CrO2,-33.3516885,-2.07,Zn,-8.37150127
CrS,-24.68705232,-0.81,Zr,-22.75577637
Cr2O3,-59.85223926,-2.36,,
CuF2,-22.47720082,-1.88,,
CuO,-18.31170544,-0.82,,
CuS,-19.41789792,-0.28,,
CuSe,-25.51672307,-0.21,,
Cu2O,-29.10618377,-0.58,,
Cu2S,-30.29282318,-0.28,,
Cu2Sb,-47.28906053,-0.04,,
Cu2Se,-36.26059617,-0.21,,
Cu2Te,-46.84251903,0.07,,
Cu3N,-40.71550924,0.19,,
Cu3P,-41.63197415,-0.17,,
Cu3Sb,-57.80909884,-0.02,,
FeF2,-27.67286575,-2.46,,
FeO,-22.77958108,-1.41,,
FeS,-23.28733819,-0.52,,
FeSe,-29.29593696,-0.39,,
Fe2O3,-55.04992066,-1.71,,
Fe3O4,-78.12014814,-1.66,,
HfN,-58.26941842,-1.91,,
HfO2,-68.7703521,-3.95,,
IrO2,-67.0547251,-0.95,,
IrS2,-69.92783537,-0.48,,
Ir2S3,-131.2479589,-0.49,,
LaCl3,-58.99688407,-2.78,,
LaN,-42.02521619,-1.57,,
LaS,-42.62632086,-2.36,,
La2O3,-96.0584149,-3.72,,
La2S3,-96.12035741,-2.51,,
La2Te3,-145.068241,-1.63,,
MnO,-24.51872937,-2,,
MnS,-24.95624965,-1.11,,
MnS2,-33.06943958,-0.72,,
MnSb,-40.95908333,-0.26,,
Mn2O3,-57.76198872,-1.99,,
Mn3O4,-82.81946612,-2.05,,
NbN,-36.35582757,-1.22,,
NbO2,-44.65908549,-2.75,,
Nb2O5,-98.41475099,-2.81,,
NiF2,-24.85629667,-2.25,,
NiO,-20.11041569,-1.24,,
NiS,-20.87101444,-0.43,,
NiSb,-38.17162778,-0.34,,
NiSe,-26.93154397,-0.31,,
NiTe,-37.75782047,-0.28,,
Ni2O3,-45.9674733,-1.01,,
Ni2Te3,-101.0143721,-0.3,,
Ni3P,-46.58388015,-0.54,,
Ni3S2,-54.07300968,-0.42,,
PdCl2,-37.01677762,-0.69,,
PdO,-30.14475322,-0.44,,
PdS,-31.91214059,-0.39,,
PdS2,-40.04167756,-0.28,,
Pd4S,-100.931763,-0.14,,
PtO,-58.24891235,-0.37,,
PtO2,-65.28339533,-0.57,,
PtS,-60.58460501,-0.42,,
PtS2,-68.8707597,-0.38,,
Pt3O4,-182.3170077,-0.4,,
RhCl3,-45.72783334,-0.78,,
RhO2,-38.9887967,-0.85,,
Rh2O3,-70.76397869,-0.84,,
Rh2S3,-75.45654329,-0.54,,
ScAs,-29.21305264,-1.39,,
ScCl3,-39.09646947,-2.4,,
ScF3,-37.62982805,-4.22,,
Sc2O3,-60.00801776,-3.94,,
TaN,-60.48737152,-1.3,,
TaS2,-68.17535707,-1.22,,
TiAs,-29.67442901,-0.78,,
TiCl4,-45.89409284,-1.7,,
TiN,-25.80161706,-1.58,,
TiO2,-34.38894397,-3.26,,
TiS,-24.12893654,-1.41,,
TiS2,-33.24675045,-1.41,,
Ti2O3,-59.16986763,-3.15,,
VF4,-41.47922276,-2.91,,
VN,-25.83571724,-1.13,,
VO,-24.41021795,-2.24,,
VO2,-33.6733191,-2.47,,
V2O3,-58.97703617,-2.53,,
V2O5,-74.29177407,-2.29,,
YAs,-38.6504597,-1.68,,
YCl3,-48.87798814,-2.59,,
YF3,-47.55456175,-4.45,,
Y2O3,-78.04254704,-3.95,,
ZrN,-35.84667169,-1.89,,
ZrO2,-46.02315537,-3.8,,
ZrS2,-44.1639291,-1.96,,