Compounds,Total energy (eV),"Formation enthalpy (experiment, eV)",Element,Total energy (eV)
Ag2O,-48.49496553,-0.11,Ag,-21.01202405
Ag2O2,-54.61589976,-0.06,Al,-6.73109404
Ag2S,-50.45059153,-0.11,As,-14.7035291
Ag2Se,-56.78126617,-0.15,Au,-50.09328217
Al2S3,-43.74128855,-1.5,Co,-11.79637069
Al2Se3,-61.42473055,-1.18,Cr,-13.5663746
Al2Te3,-92.4972848,-0.68,Cu,-10.46982405
AuCl,-56.77820518,-0.18,F,-3.06673375
AuCl3,-69.80343868,-0.3,Fe,-12.17872409
AuF3,-63.87362522,-0.94,Ga,-11.43824635
BaO2,-44.53449564,-2.19,Hf,-44.33017275
BeS,-14.78384261,-1.21,Ir,-51.34529354
CaCl2,-27.26414916,-2.75,La,-29.33563956
CaS,-19.93150237,-2.45,Mn,-13.08334902
CdCl2,-36.2162154,-1.35,Nb,-23.64519219
CdF2,-33.72115745,-2.42,Ni,-11.15991382
CdSb,-46.00400005,-0.07,Pd,-22.34022955
CdSe,-35.91046478,-0.75,Pt,-50.76219171
Cd3As2,-90.57437822,-0.08,Rh,-23.2235422
CoF2,-25.98347867,-2.39,Sc,-10.79963961
CoF3,-30.49902959,-2.1,Se,-14.30663755
CoO,-21.13946361,-1.23,Si,-8.77408201
CoS,-21.40456171,-0.43,Sn,-24.74088779
CoSb3,-90.05268609,-0.17,Sr,-15.08917751
CoSe,-27.47773521,-0.32,Ta,-47.52329104
Co3O4,-70.86884558,-1.32,Te,-25.41102183
Co3S4,-73.51566353,-0.53,Ti,-11.99741052
CrF4,-39.69372766,-2.58,V,-12.92535306
CrN,-25.14802123,-0.65,Y,-19.87985059
CrO2,-32.5182919,-2.07,Zn,-8.37150127
CrS,-24.21286431,-0.81,Zr,-22.10170402
Cr2O3,-58.71404894,-2.36,,
CuF2,-22.29003172,-1.88,,
CuO,-18.03373644,-0.82,,
CuS,-19.08292874,-0.28,,
CuSe,-25.18362559,-0.21,,
Cu2O,-28.46601339,-0.58,,
Cu2S,-29.66183353,-0.28,,
Cu2Sb,-46.6017892,-0.04,,
Cu2Se,-35.63279793,-0.21,,
Cu2Te,-46.18316794,0.07,,
Cu3N,-39.7415386,0.19,,
Cu3P,-40.63005885,-0.17,,
Cu3Sb,-56.79817998,-0.02,,
FeF2,-27.4642839,-2.46,,
FeO,-22.49139875,-1.41,,
FeS,-22.71898558,-0.52,,
FeSe,-28.76243143,-0.39,,
Fe2O3,-54.2240462,-1.71,,
Fe3O4,-76.85824266,-1.66,,
HfN,-57.35415876,-1.91,,
HfO2,-67.96672207,-3.95,,
IrO2,-66.15175379,-0.95,,
IrS2,-68.99840695,-0.48,,
Ir2S3,-129.4550594,-0.49,,
LaCl3,-58.78105084,-2.78,,
LaN,-41.72495439,-1.57,,
LaS,-42.29562359,-2.36,,
La2O3,-95.48941244,-3.72,,
La2S3,-95.59636938,-2.51,,
La2Te3,-144.5259851,-1.63,,
MnO,-24.27924776,-2,,
MnS,-24.65783137,-1.11,,
MnS2,-32.41531485,-0.72,,
MnSb,-40.48619857,-0.26,,
Mn2O3,-56.81909673,-1.99,,
Mn3O4,-81.57726928,-2.05,,
NbN,-35.30091683,-1.22,,
NbO2,-43.70775087,-2.75,,
Nb2O5,-96.46356106,-2.81,,
NiF2,-24.67587229,-2.25,,
NiO,-19.88671055,-1.24,,
NiS,-20.31309149,-0.43,,
NiSb,-37.55270682,-0.34,,
NiSe,-26.32417408,-0.31,,
NiTe,-37.11635061,-0.28,,
Ni2O3,-45.0979872,-1.01,,
Ni2Te3,-99.77355232,-0.3,,
Ni3P,-44.7279554,-0.54,,
Ni3S2,-52.23939423,-0.42,,
PdCl2,-36.50372602,-0.69,,
PdO,-29.6346236,-0.44,,
PdS,-31.35892353,-0.39,,
PdS2,-39.48968859,-0.28,,
Pd4S,-98.70488093,-0.14,,
PtO,-57.63775887,-0.37,,
PtO2,-64.61422867,-0.57,,
PtS,-59.91243138,-0.42,,
PtS2,-68.15632194,-0.38,,
Pt3O4,-180.2257456,-0.4,,
RhCl3,-45.01509984,-0.78,,
RhO2,-38.16913136,-0.85,,
Rh2O3,-69.34961747,-0.84,,
Rh2S3,-73.8213951,-0.54,,
ScAs,-28.66337498,-1.39,,
ScCl3,-38.5742454,-2.4,,
ScF3,-37.01989733,-4.22,,
Sc2O3,-58.73495503,-3.94,,
TaN,-59.3484996,-1.3,,
TaS2,-67.07796385,-1.22,,
TiAs,-28.75089515,-0.78,,
TiCl4,-44.97576873,-1.7,,
TiN,-24.80761668,-1.58,,
TiO2,-33.49626508,-3.26,,
TiS,-23.1743925,-1.41,,
TiS2,-32.42895737,-1.41,,
Ti2O3,-57.32927464,-3.15,,
VF4,-40.63778224,-2.91,,
VN,-24.66340142,-1.13,,
VO,-23.94204754,-2.24,,
VO2,-32.67759385,-2.47,,
V2O3,-57.66843607,-2.53,,
V2O5,-72.05120084,-2.29,,
YAs,-38.2593351,-1.68,,
YCl3,-48.53191788,-2.59,,
YF3,-47.20871334,-4.45,,
Y2O3,-77.19376716,-3.95,,
ZrN,-35.16211943,-1.89,,
ZrO2,-45.46084985,-3.8,,
ZrS2,-43.60012271,-1.96,,