Chemical Formula,Experimental Enthalpy (eV),"Calculated Enthalpy (uncorrected, eV)",FERE Corrected Enthalpy (eV)
Ag2O,-0.11,-0.13274018966666645,-0.12020189500843752
Ag2O2,-0.06,-0.13052622349999998,-0.19149116869260796
Ag2S,-0.11,-0.07318350199999972,-0.05043924774883616
Ag2Se,-0.15,-0.08953379999999989,-0.024037298985916184
AlAs,-0.61,-0.4996483300000003,-0.7540875799042666
AlCl3,-1.82,-1.5459406924999999,-1.854224969977072
AlF3,-3.9,-3.5480396799999996,-3.829053014804046
AlN,-1.61,-1.4232535375,-1.7032755132131783
AlP,-0.85,-0.6172571214999998,-1.0112051465092877
Al2O3,-3.47,-3.025060799,-3.4398500084197763
Al2S3,-1.5,-1.0603589432,-1.456777425352493
Al2Se3,-1.18,-0.8443634757999995,-1.1638279137792367
Al2Te3,-0.68,-0.4545110037999997,-0.7045198106106987
AuCl,-0.18,-0.25342590750000005,-0.04088957967612172
AuCl3,-0.3,-0.3131906094999999,-0.30998512616748153
AuF3,-0.94,-1.03004651,-0.9995700839944561
BaO,-2.86,-2.4802189324999997,-2.828841465338949
BaO2,-2.19,-1.8630082133333328,-2.189248123474338
BaS,-2.38,-2.0789727560000006,-2.4122863494495466
BeO,-3.14,-2.7640561585000007,-3.0358933699780604
BeS,-1.21,-1.0607191020000002,-1.3172473740886574
Be3N2,-1.22,-1.0841482091999999,-1.2195812341244376
CaCl2,-2.75,-2.4395259699999996,-2.72002579549922
CaF2,-4.21,-3.9577853133333325,-4.214044300900974
CaO,-3.29,-2.9918227575,-3.347184466962548
CaS,-2.45,-2.1696255959999995,-2.5096783660731448
Ca3N2,-0.91,-0.8168699060000009,-1.0525323285058235
Ca3P2,-1.22,-0.7402686792000004,-1.0670719411427108
CdCl2,-1.35,-1.1135621766666668,-1.3163767295056414
CdF2,-2.42,-2.1921495500000003,-2.370723264907397
CdO,-1.34,-1.0270337375,-1.2658675379721798
CdS,-0.78,-0.640146106,-0.8636709670827774
CdSb,-0.07,-0.050430345499999696,-0.13670483252489296
CdSe,-0.75,-0.6217988714999998,-0.7811953624383967
CdTe,-0.48,-0.4620305914999998,-0.5635473897979482
Cd3As2,-0.08,-0.10822193599999999,-0.18358468707025216
Cd3N2,0.33,0.5422046379999997,0.44637570628261897
Cd3P2,-0.24,-0.0569364371999999,-0.24390620835426907
CoF2,-2.39,-2.9466527333333334,-2.5184827960522997
CoF3,-2.1,-2.4403425899999993,-2.1616561631045927
CoO,-1.23,-2.2016810125,-1.5303993346895357
CoS,-0.43,-1.2406026209999998,-0.5540120038001319
CoSb3,-0.17,-0.30757500874999977,0.11616746795360289
CoSe,-0.32,-1.1452890865,-0.3945700991557528
Co3O4,-1.32,-1.907872407142857,-1.3726987782689035
Co3S4,-0.53,-1.0068581125714284,-0.45418855296672944
CrF4,-2.58,-2.565528672,-2.544835545084985
CrN,-0.65,-1.021899792500001,-0.6032802291868116
CrO2,-2.07,-2.148367263333333,-2.0751763559564225
CrS,-0.81,-1.2189079410000003,-0.9530753081726724
Cr2O3,-2.36,-2.500882235,-2.3567582131986833
CuF2,-1.88,-1.8351799733333332,-1.9360367361254263
CuO,-0.82,-0.7576397439999996,-0.8798981162992248
CuS,-0.28,-0.2651974724999997,-0.3721469054098221
CuSe,-0.21,-0.20425505999999993,-0.2470761227654421
Cu2O,-0.58,-0.5432931149999997,-0.6124793898172604
Cu2S,-0.28,-0.28923230966666696,-0.3482126248909922
Cu2Sb,-0.04,-0.02680975166666677,0.00571018248093047
Cu2Se,-0.21,-0.21244164799999984,-0.2286697164614052
Cu2Te,0.07,-0.009168940999999839,0.013189452298894011
Cu3N,0.19,0.15519990874999978,0.19659761761135375
Cu3P,-0.17,-0.10694118575000022,-0.1225065015367015
Cu3Sb,-0.02,0.0030398762499999066,0.03666930689736514
FeF2,-2.46,-3.4203383549999997,-2.5815248199914897
FeO,-1.41,-2.8425945650000006,-1.5553474905983204
FeS,-0.52,-1.8625405084999995,-0.5599844947089174
FeSe,-0.39,-1.7606165615,-0.3939321775645368
Fe2O3,-1.71,-2.6777325230000004,-1.7042297964276798
Fe3O4,-1.66,-2.6905058378571423,-1.627361869047862
GaAs,-0.37,-0.3584414875000004,-0.5673626157371983
GaCl3,-1.36,-1.1398621687499997,-1.4253873853935377
GaF3,-3.01,-2.58931134625,-2.8475656202205126
GaN,-0.81,-0.47585786500000005,-0.7103617190461096
GaP,-0.53,-0.408302784,-0.7567326873422195
GaS,-1.09,-0.6505782185000006,-1.0378690030319708
GaSb,-0.22,-0.1622877599999999,-0.412328170474086
GaSe,-0.83,-0.5856926009999999,-0.9088550153875898
Ga2O3,-2.26,-1.8442808489999998,-2.222655561086122
Ga2S3,-1.07,-0.6628401711999998,-1.0228441560188386
Ga2Se3,-0.85,-0.5815672977999995,-0.8646172384455824
GeO2,-2.0,-1.6023256433333326,-1.8979476191890072
GeS,-0.39,-0.2654701985000001,-0.5528568905215501
GeS2,-0.66,-0.3269712613333334,-0.6021813180031371
GeSe,-0.48,-0.23029961549999944,-0.45355793737716876
Ge3N4,-0.09,0.007707664285713837,-0.09984683488696078
HfN,-1.91,-1.6402952325000015,-1.9032190176260873
HfO2,-3.95,-3.5733493300000005,-3.954520654915939
HgCl2,-0.77,-0.6233571023333333,-0.7823304455656729
HgO,-0.47,-0.2947730124999999,-0.46784499856222705
HgS,-0.3,-0.12447806450000032,-0.2822411111728249
HgSe,-0.24,-0.16841492150000015,-0.2620495980284445
HgTe,-0.22,-0.16361364000000012,-0.19936862388799592
InAs,-0.31,-0.2430831849999997,-0.2989905882848394
InN,-0.1,0.1134893624999993,0.031999233406248884
InP,-0.39,-0.19032392650000052,-0.38574010488986055
InS,-0.7,-0.5028763884999998,-0.7371534480796114
InSb,-0.16,-0.11839946749999974,-0.21542615302172763
InSe,-0.62,-0.5222425815,-0.6923912709352309
InTe,-0.5,-0.29865287649999983,-0.41092187329478236
In2O3,-1.92,-1.623168631,-1.879132363124235
In2S3,-0.74,-0.5505370652000003,-0.7881300700569518
In2Se3,-0.67,-0.5286204118000001,-0.6892593724836956
In2Te3,-0.41,-0.30657002380000054,-0.3977533533151572
IrO2,-0.95,-0.8688895233333334,-0.9595963702067039
IrS2,-0.48,-0.4504472580000005,-0.5207421856875006
Ir2S3,-0.49,-0.44071587720000027,-0.474898433231737
KCl,-2.26,-1.9706422309999998,-2.155263358980103
KF,-2.94,-2.7019999009999998,-2.868440400531419
KSb,-0.43,-0.43157109999999976,-0.5013075663259547
KSb2,-0.37,-0.2957243139999998,-0.33433397083415173
K2O,-1.25,-1.0025555596666667,-1.2051250444492825
K2O2,-1.28,-1.0446902710000003,-1.2669860507732418
K2S,-1.31,-1.051772392,-1.2441359171896806
K2S2,-1.12,-0.9290648570000002,-1.1360516973838393
K2Se,-1.36,-1.0919185289999997,-1.2415298074267607
K3As,-0.48,-0.3274757664999999,-0.4233428059452158
K3Bi,-0.6,-0.37184001224999985,-0.471184631084999
K3Sb,-0.47,-0.40639014149999997,-0.52281682206366
K5Sb4,-0.44,-0.43232788000000016,-0.5124399494898897
LaCl3,-2.78,-2.451272253,-2.673499303234366
LaN,-1.57,-1.3310979834999994,-1.4390055047277652
LaS,-2.36,-2.1703770369999997,-2.431071488713626
La2O3,-3.72,-3.4516771858,-3.728774831631447
La2S3,-2.51,-2.2051485479999995,-2.4638754665641636
La2Te3,-1.63,-1.6096173385999997,-1.7219345818223695
LiCl,-2.12,-1.8402923265,-2.023808159929177
LiF,-3.19,-2.9639529765,-3.129288181480493
Li2O,-2.07,-1.8590165803333332,-2.060112339048048
Li2O2,-1.64,-1.4388148314999993,-1.660005316722315
Li2S,-1.52,-1.3487886160000002,-1.5396784151217797
Li2Se,-1.45,-1.2678046363333335,-1.4159421886921928
Li3Bi,-0.6,-0.5345446947500001,-0.6322313717586101
Li3N,-0.43,-0.3951311860000004,-0.5021316465232828
Li3Sb,-0.83,-0.6358155035000004,-0.7505842422372706
MgCl2,-2.21,-1.8913275616666667,-2.1468137143797903
MgF2,-3.88,-3.557657021666667,-3.7889023364482113
MgO,-3.11,-2.73403203,-3.0518732302834026
MgS,-1.79,-1.4363882785,-1.7389205393939995
MgSe,-1.52,-1.2574964714999997,-1.4959003622496194
MgTe,-1.08,-0.8761872190000002,-1.0567114171091712
Mg3As2,-0.91,-0.6377885610000004,-0.8079601918437198
Mg3Bi2,-0.32,-0.2062711069999999,-0.38200686486737256
Mg3N2,-0.96,-0.7777204590000004,-0.9683582704908489
Mg3P2,-0.96,-0.6744241802000005,-0.9562028311277366
Mg3Sb2,-0.49,-0.37414083500000006,-0.5772078916332302
MnO,-2.0,-3.2865092680000005,-2.070678864228242
MnS,-1.11,-2.4279394815,-1.1968001383388396
MnS2,-0.72,-1.3487882883333338,-0.611647654881331
MnSb,-0.26,-1.5289476830000002,-0.1605579657809555
Mn2O3,-1.99,-2.8900125434,-1.9736431533316179
Mn3O4,-2.05,-3.0696702304285712,-2.0677405507306523
NaCl,-2.13,-1.8573641124999998,-2.017059995176835
NaF,-2.97,-2.7851117674999997,-2.926627021728151
NaSb,-0.33,-0.3411855954999998,-0.38599681652268725
NaTe3,-0.35,-0.3946065285000002,-0.428053624846199
Na2O,-1.43,-1.2641178083333335,-1.4334536327115923
Na2O2,-1.32,-1.13352027,-1.3308908044699734
Na2S,-1.26,-1.099315780666667,-1.2584456454519906
Na2S2,-1.03,-0.8587945659999998,-1.0408561610805713
Na2Se,-1.18,-1.089523287666667,-1.2059009056890704
Na2Se2,-0.97,-0.8480918590000002,-0.966025083936191
Na3As,-0.53,-0.4431711262500002,-0.5016502977403139
Na3Bi,-0.46,-0.39088298,-0.4528397308800973
Na3Sb,-0.53,-0.4514245200000002,-0.5304633326087582
NbN,-1.22,-1.0976364825000005,-1.1692556569192938
NbO2,-2.75,-2.4668114266666663,-2.720446344444744
Nb2O5,-2.81,-2.565970093571429,-2.823582118059084
NiF2,-2.25,-2.523125581666667,-2.519837871928815
NiO,-1.24,-1.619285755,-1.5853274185043071
NiS,-0.43,-0.6307784895000004,-0.5815112136149048
NiSb,-0.34,-0.41756065750000015,-0.23104300755702045
NiSe,-0.31,-0.44833153549999993,-0.3349358894705241
NiTe,-0.28,-0.2926094790000002,-0.12133414033007606
Ni2O3,-1.01,-1.0371151189999999,-1.0662433827524693
Ni2Te3,-0.3,-0.2957746497999999,-0.16012251094339155
Ni3P,-0.54,-0.6676026595000004,-0.4488429120943245
Ni3S2,-0.42,-0.5701193658000004,-0.4608272775446231
PdCl2,-0.69,-0.6214206489999997,-0.6512674124754442
PdO,-0.44,-0.6396678924999994,-0.6190500089268838
PdS,-0.39,-0.4653556625000004,-0.4294288395374819
PdS2,-0.28,-0.34751582799999997,-0.40718354134709206
Pd4S,-0.14,-0.3128814604000006,-0.10488447208018244
PtO,-0.37,-0.33715558750000074,-0.2065703310234932
PtO2,-0.57,-0.5364985366666666,-0.5432665872640344
PtS,-0.42,-0.4700189159999999,-0.32412472013409044
PtS2,-0.38,-0.3788427213333332,-0.3651988527448318
Pt3O4,-0.4,-0.5023487714285721,-0.4306292179837255
RbCl,-2.26,-1.9728834945,-2.168811723080881
RbF,-2.89,-2.6680822745,-2.845829874632198
RbSb,-0.52,-0.42946591599999984,-0.5105094829267331
RbSb2,-0.35,-0.30144344633333314,-0.34759117023467034
Rb2O,-1.17,-0.9108024210000002,-1.128448039916987
Rb2O2,-1.22,-1.0130435595000002,-1.24664643987402
Rb2S,-1.25,-1.0084794633333332,-1.215919122657385
Rb3Sb,-0.45,-0.3614084879999999,-0.494795819464827
RhCl3,-0.78,-0.7260185925,-0.787472322638247
RhO2,-0.85,-0.8669575066666665,-0.9304202288555672
Rh2O3,-0.84,-0.8004948890000001,-0.8203552226776558
Rh2S3,-0.54,-0.5310401732000003,-0.5325297796103726
ScAs,-1.39,-1.3668222000000005,-1.5432297582520684
ScCl3,-2.4,-2.1423165425,-2.4115849741509727
ScF3,-4.22,-3.9731470900000003,-4.215144578977948
Sc2O3,-3.94,-3.5542983709999993,-3.9066622270980176
SiO2,-3.13,-2.803848981666667,-3.0253985197547153
SiS2,-0.88,-0.6769133629999994,-0.8780509819021786
SiSe2,-0.61,-0.44637888366666684,-0.5620120090430044
Si3N4,-1.1,-1.1097584192857153,-1.122076927042871
SnO,-1.48,-1.3270908749999997,-1.4785504990253129
SnO2,-1.97,-1.6902222683333334,-1.8850202392652484
SnS,-0.57,-0.45671827500000006,-0.5928689596359105
SnS2,-0.53,-0.3884942663333331,-0.5628803180793783
SnSe,-0.47,-0.4416233579999993,-0.5136456724915299
SnSe2,-0.43,-0.3498411303333331,-0.438722688553538
SrO,-3.07,-2.742239685,-3.094094268746442
SrO2,-2.19,-1.9034518283333337,-2.231846439079335
SrS,-2.45,-2.1514619985000003,-2.48800764285704
Sr2Bi,-1.08,-0.7608038733333332,-1.011636138810478
Sr2Sb,-1.11,-0.8631316566666666,-1.1367400044486924
TaN,-1.3,-1.1508534425000008,-1.210037036015489
TaS2,-1.22,-1.055042698,-1.2799753093230042
TiAs,-0.78,-0.8403852014999993,-0.8653421731950521
TiCl4,-1.7,-1.5666675226,-1.7627271055297407
TiN,-1.58,-1.4602971140000003,-1.5108368115039648
TiO2,-3.26,-2.947335957666667,-3.1869178908345255
TiS,-1.41,-1.3168995425000007,-1.520226170489825
TiS2,-1.41,-1.3555598123333337,-1.5747298263153215
Ti2O3,-3.15,-2.8346577142,-3.0658611010524055
VF4,-2.91,-2.958707492,-2.9364725288725495
VN,-1.13,-1.0897063674999998,-0.6672322136557218
VO,-2.24,-2.7833719125000007,-2.5289936285309853
VO2,-2.47,-2.5217394133333335,-2.445978778935696
V2O3,-2.53,-2.8494750449999997,-2.7022673507738117
V2O5,-2.29,-2.212196722142857,-2.1874697019084715
YAs,-1.68,-1.5686961999999998,-1.7397010675377826
YCl3,-2.59,-2.3685834649999995,-2.63515055129383
YF3,-4.45,-4.170555865,-4.409852008620804
Y2O3,-3.95,-3.5880170589999993,-3.9360587625265895
ZnCl2,-1.43,-1.272810325,-1.4208753461497092
ZnF2,-2.64,-2.493185345,-2.617009528218131
ZnO,-1.81,-1.6871087999999999,-1.8438183029382809
ZnP2,-0.21,-0.2749230803333334,-0.4009945431016894
ZnS,-1.07,-0.9132343390000002,-1.0546349025488788
ZnSb,-0.08,-0.04772009899999974,-0.05187028849099429
ZnSe,-0.85,-0.786410059,-0.8636822524044985
ZnTe,-0.61,-0.5127095589999999,-0.5321020597640498
Zn3As2,-0.28,-0.20990152900000006,-0.18671512302957397
Zn3N2,-0.05,-0.10713457100000028,-0.10441434567670313
Zn3P2,-0.33,-0.25852632620000016,-0.3469469403135911
ZrN,-1.89,-1.7312193125000004,-1.8649424440943863
ZrO2,-3.8,-3.561123143333333,-3.8561606992281394
ZrS2,-1.96,-1.6459187013333338,-1.9205443380422693