Chemical Formula,Experimental Enthalpy (eV),"Calculated Enthalpy (uncorrected, eV)",FERE Corrected Enthalpy (eV)
Ag2O,-0.11,-0.19096678666666614,-0.10699747894748886
Ag2O2,-0.06,-0.1700552549999994,-0.11705971971416318
Ag2S,-0.11,-0.15183084733333393,-0.09577843992232242
Ag2Se,-0.15,-0.17375759666666588,-0.09114445484464066
AlAs,-0.61,-0.6282580800000002,-0.7267625951927261
AlCl3,-1.82,-1.7647652487500007,-1.83414027028497
AlF3,-3.9,-3.903045795,-3.904312097697674
AlN,-1.61,-1.7121695399999997,-1.7156384153641149
AlP,-0.85,-0.7384366294999998,-0.9713199375486337
Al2O3,-3.47,-3.37442919,-3.5153295774658746
Al2S3,-1.5,-1.2373395971999996,-1.4284904052205731
Al2Se3,-1.18,-1.008525963999999,-1.1518674500807493
Al2Te3,-0.68,-0.5604062459999994,-0.6581874304186528
AuCl,-0.18,-0.32948546749999963,-0.13150780328119893
AuCl3,-0.3,-0.38549326875000034,-0.2840274017233462
AuF3,-0.94,-1.149793282500001,-0.9802186966360527
BaO,-2.86,-2.7308910650000016,-2.811931012510218
BaO2,-2.19,-2.078325460000002,-2.145660685678211
BaS,-2.38,-2.371662661000002,-2.4945779589724673
BeO,-3.14,-3.0109017885,-3.085646957031557
BeS,-1.21,-1.2067089895,-1.3233295084938064
Be3N2,-1.22,-1.2605675561999987,-1.2121364712632854
CaCl2,-2.75,-2.7106642900000004,-2.78395281428284
CaF2,-4.21,-4.26354314,-4.276290580871912
CaO,-3.29,-3.2485882949999993,-3.383438042265862
CaS,-2.45,-2.435296731,-2.6120218287281123
Ca3N2,-0.91,-0.9804604339999983,-1.0041548435444525
Ca3P2,-1.22,-0.8645092055999996,-1.0717351612920694
CdCl2,-1.35,-1.3400217066666684,-1.359381304750367
CdF2,-2.42,-2.4978626266666666,-2.4566811413394363
CdO,-1.34,-1.2663398799999985,-1.3202962379671508
CdS,-0.78,-0.7808579109999982,-0.8766896194293992
CdSb,-0.07,-0.1076644050000013,-0.10087029213099186
CdSe,-0.75,-0.7548625799999975,-0.8108531868128779
CdTe,-0.48,-0.5678292399999982,-0.5858529287611312
Cd3As2,-0.08,-0.17700276200000076,-0.17965361624889056
Cd3N2,0.33,0.4008675260000018,0.47424518361400203
Cd3P2,-0.24,-0.1286168876000005,-0.23877077613361736
CoF2,-2.39,-2.9349794599999997,-2.4386228411943414
CoF3,-2.1,-2.53532724,-2.1391183521580315
CoO,-1.23,-2.0213864899999994,-1.3925801477495074
CoS,-0.43,-1.051018611,-0.4640876192117567
CoSb3,-0.17,-0.30896539499999776,0.07660059137239017
CoSe,-0.32,-0.9498902349999998,-0.3231181415952378
Co3O4,-1.32,-1.8970589414285715,-1.3637857597873193
Co3S4,-0.53,-0.985176955428571,-0.49976131717274697
CrF4,-2.58,-2.8556619819999995,-2.470383493130943
CrN,-0.65,-1.5351540550000013,-0.6207769502715763
CrO2,-2.07,-2.485365123333333,-1.9975390898289014
CrS,-0.81,-1.6682013260000002,-0.9583747351985057
Cr2O3,-2.36,-3.006092586,-2.4127161893918427
CuF2,-1.88,-1.9519687033333344,-1.9058288470745417
CuO,-0.82,-0.8543566499999997,-0.9008754515698083
CuS,-0.28,-0.2999396359999995,-0.388333788032055
CuSe,-0.21,-0.21349063499999943,-0.2620436854155379
Cu2O,-0.58,-0.5512135033333342,-0.5999299780883453
Cu2S,-0.28,-0.2563146940000003,-0.3329480690631783
Cu2Sb,-0.04,0.004765330000000271,-0.0034508308642386964
Cu2Se,-0.21,-0.15393587666666755,-0.20400851731883307
Cu2Te,0.07,0.04009423000000112,0.015332868049000581
Cu3N,0.19,0.16483914249999998,0.19636141288472686
Cu3P,-0.17,-0.06967419724999857,-0.15285914320753236
Cu3Sb,-0.02,0.06510610250000148,0.045666026570467366
FeF2,-2.46,-3.359599423333332,-2.4787832005619053
FeO,-1.41,-2.620306815000001,-1.4148110668008567
FeS,-0.52,-1.6027410460000002,-0.43912064826310626
FeSe,-0.39,-1.4888978000000002,-0.2854363006465839
Fe2O3,-1.71,-2.7104170979999993,-1.7540056558435224
Fe3O4,-1.66,-2.6811430442857147,-1.6535646575456195
GaAs,-0.37,-0.4554297149999993,-0.5717050509994799
GaCl3,-1.36,-1.2929089737499995,-1.371169405688346
GaF3,-3.01,-2.8994886525000005,-2.909640365601051
GaN,-0.81,-0.700220019999998,-0.7214597161708678
GaP,-0.53,-0.5124640194999994,-0.763118148355387
GaS,-1.09,-0.7657985509999996,-0.9915887610977965
GaSb,-0.22,-0.2347527350000007,-0.357917123799389
GaSe,-0.83,-0.6924441150000007,-0.878393223481277
Ga2O3,-2.26,-2.1093217179999995,-2.264438762111277
Ga2S3,-1.07,-0.7988912331999998,-1.004258697865977
Ga2Se3,-0.85,-0.702584084,-0.860142226726154
GeO2,-2.0,-1.8554266166666669,-1.9552450634051535
GeS,-0.39,-0.24289128600000076,-0.4145314155628821
GeS2,-0.66,-0.3891222479999996,-0.5447744953548188
GeSe,-0.48,-0.20001599499999934,-0.3318150229463619
Ge3N4,-0.09,-0.19361471428571317,-0.12463087841436504
HfN,-1.91,-1.9080119800000013,-1.842222215264112
HfO2,-3.95,-3.917286330000001,-3.9951851898239235
HgCl2,-0.77,-0.7477785333333339,-0.771000254737551
HgO,-0.47,-0.3803597700000019,-0.44010931294792854
HgS,-0.3,-0.17119181099999992,-0.27281670441017525
HgSe,-0.24,-0.23742205000000283,-0.2992058417936576
HgTe,-0.22,-0.19255088500000284,-0.21636775874191017
InAs,-0.31,-0.3720087549999995,-0.2992343934703072
InN,-0.1,-0.10481233500000009,0.06299766635830828
InP,-0.39,-0.3192503895000005,-0.38085482082621347
InS,-0.7,-0.6744722260000007,-0.7112127385686229
InSb,-0.16,-0.2332694499999981,-0.16738414127021528
InSe,-0.62,-0.6742751200000008,-0.6711745309521042
InTe,-0.5,-0.3982113500000004,-0.3571438429003564
In2O3,-1.92,-1.90541846,-1.9092957460879376
In2S3,-0.74,-0.7387345732,-0.7928622798426346
In2Se3,-0.67,-0.6839042679999977,-0.6902226527028119
In2Te3,-0.41,-0.4380598780000014,-0.39881796104071443
IrO2,-0.95,-1.0235542333333332,-0.9062917111462431
IrS2,-0.48,-0.5680653013333341,-0.5066365797625755
Ir2S3,-0.49,-0.5935712752000001,-0.4951215127273542
KCl,-2.26,-2.2062294099999997,-2.193867163498151
KF,-2.94,-2.9179420425,-2.860173983439953
KSb,-0.43,-0.5689838074999969,-0.5183110160863382
KSb2,-0.37,-0.3919537783333311,-0.3309801975048501
K2O,-1.25,-1.1565602866666655,-1.1566885985586015
K2O2,-1.28,-1.1797898824999997,-1.1898675619224992
K2S,-1.31,-1.2333552073333334,-1.261400419533435
K2S2,-1.12,-1.0874674984999997,-1.1394205283847487
K2Se,-1.36,-1.281735206666666,-1.283219684455755
K3As,-0.48,-0.4496685662500006,-0.4110024325586181
K3Bi,-0.6,-0.4982964312500009,-0.48638201023981864
K3Sb,-0.47,-0.5438391387500001,-0.5086175314585724
K5Sb4,-0.44,-0.5725319605555576,-0.5252927656135031
LaCl3,-2.78,-2.860993941250001,-2.741503931393284
LaN,-1.57,-1.6929145100000014,-1.3186533225807437
LaS,-2.36,-2.485239075999999,-2.3155284025076703
La2O3,-3.72,-3.8369505040000007,-3.675666841239175
La2S3,-2.51,-2.609579327200001,-2.498546084993876
La2Te3,-1.63,-1.964752021999999,-1.7603491561919555
LiCl,-2.12,-2.057609191,-2.0803951140908685
LiF,-3.19,-3.1974442235000007,-3.174824334032672
Li2O,-2.07,-2.011526541333334,-2.0585190793488928
Li2O2,-1.64,-1.571402076,-1.6166279250152176
Li2S,-1.52,-1.5017445586666665,-1.576653996990392
Li2Se,-1.45,-1.430568911333334,-1.478917615246046
Li3Bi,-0.6,-0.611916797750002,-0.6527246311288941
Li3N,-0.43,-0.47501218525000066,-0.44155048603338987
Li3Sb,-0.83,-0.7358903652499986,-0.7533910123476488
MgCl2,-2.21,-2.1450755400000006,-2.181706277291854
MgF2,-3.88,-3.878816366666667,-3.854906020547592
MgO,-3.11,-3.039588085,-3.1194511517793835
MgS,-1.79,-1.6652898660000002,-1.787028283241633
MgSe,-1.52,-1.4748481350000002,-1.5567454506251135
MgTe,-1.08,-1.0568540950000003,-1.100784492573366
Mg3As2,-0.91,-0.7937854579999992,-0.8275243628235671
Mg3Bi2,-0.32,-0.289235044000003,-0.3657766891134827
Mg3N2,-0.96,-0.9928365799999994,-0.9505469729606772
Mg3P2,-0.96,-0.8138350435999996,-0.9550769827082938
Mg3Sb2,-0.49,-0.5039678019999982,-0.5432179490634923
MnO,-2.0,-3.139192835000001,-2.019756774435697
MnS,-1.11,-2.2557972910000004,-1.1782365808979467
MnS2,-0.72,-1.2993514179999994,-0.6222031055781928
MnSb,-0.26,-1.2754988149999988,-0.09531228359953658
Mn2O3,-1.99,-2.8872937539999994,-1.9997300619513951
Mn3O4,-2.05,-3.020454787142857,-2.06664184694691
NaCl,-2.13,-2.1157673074999996,-2.0687003029194155
NaF,-2.97,-3.0617665700000005,-2.969293752861219
NaSb,-0.33,-0.46607932999999946,-0.3807017805076036
NaTe3,-0.35,-0.48426380249999923,-0.43801415036995195
Na2O,-1.43,-1.4595044300000002,-1.4133597311202888
Na2O2,-1.32,-1.31471478,-1.290087701343765
Na2S,-1.26,-1.3015034373333332,-1.2832756387617887
Na2S2,-1.03,-1.0312803484999993,-1.0485286203060138
Na2Se,-1.18,-1.297199853333333,-1.252411320350775
Na2Se2,-0.97,-1.0219408800000007,-0.9993480501894947
Na3As,-0.53,-0.5764780074999996,-0.4857547366905166
Na3Bi,-0.46,-0.5145925150000004,-0.4506209568717132
Na3Sb,-0.53,-0.5919494350000001,-0.5046706905904692
NbN,-1.22,-1.295551549999999,-1.1144140542711547
NbO2,-2.75,-2.774266593333335,-2.775266965828621
Nb2O5,-2.81,-2.8131082114285726,-2.819669356712276
NiF2,-2.25,-2.6228915600000007,-2.482294311778644
NiO,-1.24,-1.6194311949999989,-1.5242639086259615
NiS,-0.43,-0.6365238859999991,-0.5832319500882104
NiSb,-0.34,-0.3729518449999958,-0.2170340877897985
NiSe,-0.31,-0.45748309499999884,-0.36435005747169136
NiTe,-0.28,-0.2863709400000012,-0.1552709844199427
Ni2O3,-1.01,-1.0970115379999996,-1.0288628653036085
Ni2Te3,-0.3,-0.2619865720000007,-0.15071869625638498
Ni3P,-0.54,-0.5995722497500005,-0.4702280637917653
Ni3S2,-0.42,-0.5724364668000007,-0.4837508471181152
PdCl2,-0.69,-0.7128174833333342,-0.6230957938283955
PdO,-0.44,-0.7252334949999995,-0.615567921584196
PdS,-0.39,-0.5131032910000002,-0.44531306804644544
PdS2,-0.28,-0.37567105466666817,-0.3717030670105288
Pd4S,-0.14,-0.2958623184000004,-0.11319207191109797
PtO,-0.37,-0.5461822550000015,-0.2968580077367555
PtO2,-0.57,-0.688554106666667,-0.535646535829232
PtS,-0.42,-0.6014272359999993,-0.39397833919900194
PtS2,-0.38,-0.45580100799999457,-0.3587272377788935
Pt3O4,-0.4,-0.6253935757142861,-0.4173907612049561
RbCl,-2.26,-2.2072378725000004,-2.2131172432981803
RbF,-2.89,-2.88939678,-2.849870338239983
RbSb,-0.52,-0.5756617949999985,-0.5432306208863658
RbSb2,-0.35,-0.4163757933333301,-0.36756329070486987
Rb2O,-1.17,-1.0866106966666678,-1.1110611649586417
Rb2O2,-1.22,-1.1626297000000019,-1.190948996722529
Rb2S,-1.25,-1.2029353440000012,-1.255302712600141
Rb3Sb,-0.45,-0.5102840549999996,-0.5024248736586152
RhCl3,-0.78,-0.9676943062500012,-0.7903570193430678
RhO2,-0.85,-1.0707711666666644,-0.8658927086347225
Rh2O3,-0.84,-1.1199936219999984,-0.8661543159588291
Rh2S3,-0.54,-0.7085239492,-0.504935063713529
ScAs,-1.39,-1.5525220500000003,-1.5835680875516722
ScCl3,-2.4,-2.39754253875,-2.433188321464442
ScF3,-4.22,-4.226419012500001,-4.193956076377147
Sc2O3,-3.94,-3.8114950179999996,-3.8984286233530296
SiO2,-3.13,-3.0564191599999995,-3.0439290706668203
SiS2,-0.88,-0.7488998913333328,-0.7922436026164851
SiSe2,-0.61,-0.5176536300000004,-0.5078758724611253
Si3N4,-1.1,-1.3528021614285717,-1.1394216363222236
SnO,-1.48,-1.4340207400000011,-1.4353835326757967
SnO2,-1.97,-1.9571388933333342,-1.971356015788596
SnS,-0.57,-0.481479341,-0.5247174841380442
SnS2,-0.53,-0.4938751513333344,-0.5639260744049253
SnSe,-0.47,-0.46085059500000014,-0.46424763652152734
SnSe2,-0.43,-0.44155602000000016,-0.45848547424956837
SrO,-3.07,-3.016673214999999,-3.0994195886162466
SrO2,-2.19,-2.1334837233333324,-2.201956566415563
SrS,-2.45,-2.452395200999998,-2.577016925078496
Sr2Bi,-1.08,-0.9335117333333329,-1.0211075719678178
Sr2Sb,-1.11,-1.0542490499999981,-1.1107686402594912
TaN,-1.3,-1.3580610199999974,-1.2360938088018614
TaS2,-1.22,-1.1663230979999994,-1.2626041274654252
TiAs,-0.78,-1.0075307949999992,-0.8919429738001039
TiCl4,-1.7,-1.7493971520000002,-1.7182694207040257
TiN,-1.58,-1.8152270250000004,-1.6046035639714926
TiO2,-3.26,-3.2105092166666673,-3.1918522789621804
TiS,-1.41,-1.541267230999999,-1.53519428389842
TiS2,-1.41,-1.4838710346666666,-1.5210478975785122
Ti2O3,-3.15,-3.1060205539999997,-3.075647072351778
VF4,-2.91,-3.1503749440000006,-2.9143156878134326
VN,-1.13,-1.3139350600000004,-0.7726060369777983
VO,-2.24,-2.8970195699999994,-2.5183657104424757
VO2,-2.47,-2.6989727800000005,-2.4598454676330497
V2O3,-2.53,-3.0117850839999987,-2.71684715275682
V2O5,-2.29,-2.367724737142857,-2.168462152544641
YAs,-1.68,-1.8288130850000002,-1.7663111975516728
YCl3,-2.59,-2.6303090312499986,-2.619180851464442
YF3,-4.45,-4.53798228,-4.458745381377146
Y2O3,-3.95,-3.905472001999999,-3.91756726735303
ZnCl2,-1.43,-1.4702635600000005,-1.4203018743424825
ZnF2,-2.64,-2.8113958133333337,-2.7008930442648857
ZnO,-1.81,-1.936360445000001,-1.886334877355326
ZnP2,-0.21,-0.3429445693333335,-0.41188847720140015
ZnS,-1.07,-1.0811987060000003,-1.0730484888175749
ZnSb,-0.08,-0.0894228799999972,0.021353158480835077
ZnSe,-0.85,-0.9378371399999992,-0.8898458212010532
ZnTe,-0.61,-0.6199033000000007,-0.5339450631493072
Zn3As2,-0.28,-0.29034175000000034,-0.16821429351469702
Zn3N2,-0.05,-0.31809165399999983,-0.11993568565180653
Zn3P2,-0.33,-0.3436149515999986,-0.32899052939942236
ZrN,-1.89,-1.9748034799999985,-1.8267722810439828
ZrO2,-3.8,-3.8595510400000017,-3.882622277010507
ZrS2,-1.96,-1.8406244979999993,-1.919529535626836