Chemical Formula,Experimental Enthalpy (eV),"Calculated Enthalpy (uncorrected, eV)",FERE Corrected Enthalpy (eV)
Ag2O,-0.11,-0.1969931966666678,-0.1043877571711415
Ag2O2,-0.06,-0.1643100250000007,-0.10732674257156027
Ag2S,-0.11,-0.16191019733333434,-0.10248586934794683
Ag2Se,-0.15,-0.18566381333333482,-0.10002405005216275
AlAs,-0.61,-0.6282580800000002,-0.7277791365480972
AlCl3,-1.82,-1.7647652487500007,-1.8306523462745075
AlF3,-3.9,-3.903045795,-3.8953413750745716
AlN,-1.61,-1.7121695399999997,-1.7209639420910765
AlP,-0.85,-0.7384366294999998,-0.9738613265926617
Al2O3,-3.47,-3.37442919,-3.5095956901301024
Al2S3,-1.5,-1.2373395971999996,-1.4322320980483512
Al2Se3,-1.18,-1.008525963999999,-1.1562306813159395
Al2Te3,-0.68,-0.5604062459999994,-0.6590231609196138
AuCl,-0.18,-0.3352859475000045,-0.13619599903729096
AuCl3,-0.3,-0.3829047362500013,-0.283435915840645
AuF3,-0.94,-1.1515264225,-0.9784660846407078
BaO,-2.86,-2.7308910650000016,-2.807639339116129
BaO2,-2.19,-2.078325460000002,-2.146118705668357
BaS,-2.38,-2.371662661000002,-2.498182602381334
BeO,-3.14,-3.0109017885,-3.078114808651282
BeS,-1.21,-1.2067089895,-1.3236936769164895
Be3N2,-1.22,-1.2605675561999987,-1.2130922019242973
CaCl2,-2.75,-2.7106642900000004,-2.779975776666736
CaF2,-4.21,-4.26354314,-4.267439944489017
CaO,-3.29,-3.2485882949999993,-3.377344811742512
CaS,-2.45,-2.435296731,-2.613824915007722
Ca3N2,-0.91,-0.9804604339999983,-1.0068372756337751
Ca3P2,-1.22,-0.8645092055999996,-1.0721902832350438
CdCl2,-1.35,-1.3400217066666684,-1.3553896315502574
CdF2,-2.42,-2.4978626266666666,-2.447815869372537
CdO,-1.34,-1.2663398799999985,-1.3141810540677934
CdS,-0.78,-0.7808579109999982,-0.8784707523330013
CdSb,-0.07,-0.1076644050000013,-0.10562793913914703
CdSe,-0.75,-0.7548625799999975,-0.8131522683893238
CdTe,-0.48,-0.5678292399999982,-0.5852124263923848
Cd3As2,-0.08,-0.17700276200000076,-0.17886251598972933
Cd3N2,0.33,0.4008675260000018,0.471589095575888
Cd3P2,-0.24,-0.1286168876000005,-0.23919955402538165
CoF2,-2.39,-3.0593728266666673,-2.479259051126084
CoF3,-2.1,-2.6153288999999997,-2.1557511394389177
CoO,-1.23,-2.182542425000001,-1.435283071698116
CoS,-0.43,-1.190448851000001,-0.4929611649633241
CoSb3,-0.17,-0.31640512499999573,0.1070994171575066
CoSe,-0.32,-1.088169765,-0.35135892601964613
Co3O4,-1.32,-2.00903303,-1.3756511827087852
Co3S4,-0.53,-1.0517254082857141,-0.475225466440451
CrF4,-2.58,-2.8968413019999995,-2.449255338001646
CrN,-0.65,-1.6770385199999982,-0.6312617097573412
CrO2,-2.07,-2.5484836100000003,-1.9663887500147308
CrS,-0.81,-1.8480542559999993,-0.9997420389008962
Cr2O3,-2.36,-3.130745426,-2.4222549562631146
CuF2,-1.88,-1.9805558699999999,-1.9240159324361972
CuO,-0.82,-0.8747399100000006,-0.9128413136632858
CuS,-0.28,-0.3047629410000017,-0.3926360119284933
CuSe,-0.21,-0.2189440600000001,-0.26749397798481667
Cu2O,-0.58,-0.5623297066666666,-0.5965038486267767
Cu2S,-0.28,-0.26957508733333313,-0.3369303408035809
Cu2Sb,-0.04,0.00105222666666549,0.0001298446589880579
Cu2Se,-0.21,-0.16856944999999968,-0.20970926817446411
Cu2Te,0.07,0.03128632666666675,0.017417509823495436
Cu3N,0.19,0.15480251249999988,0.1964384643306527
Cu3P,-0.17,-0.07762928725000151,-0.14930848292014254
Cu3Sb,-0.02,0.057772294999999474,0.05050060385580224
FeF2,-2.46,-3.514465823333334,-2.5083858641308794
FeO,-1.41,-2.838790489999999,-1.4525818612053083
FeS,-0.52,-1.7895499459999993,-0.4531129844705166
FeSe,-0.39,-1.473961964999999,-0.0982018505268396
Fe2O3,-1.71,-2.8620700979999993,-1.7630798327188102
Fe3O4,-1.66,-2.838969354285715,-1.6579166994292376
GaAs,-0.37,-0.4554297149999993,-0.5730198609496817
GaCl3,-1.36,-1.2929089737499995,-1.3678306159752989
GaF3,-3.01,-2.8994886525000005,-2.900818777275364
GaN,-0.81,-0.700220019999998,-0.7270835114926602
GaP,-0.53,-0.5124640194999994,-0.7659578059942458
GaS,-1.09,-0.7657985509999996,-0.9901266356362157
GaSb,-0.22,-0.2347527350000007,-0.3594315124423595
GaSe,-0.83,-0.6924441150000007,-0.87744904669254
Ga2O3,-2.26,-2.1093217179999995,-2.2589434896513696
Ga2S3,-1.07,-0.7988912331999998,-1.0082390055696195
Ga2Se3,-0.85,-0.702584084,-0.8647440728372061
GeO2,-2.0,-1.8554266166666669,-1.9464214511032967
GeS,-0.39,-0.24289128600000076,-0.4042136105337466
GeS2,-0.66,-0.3891222479999996,-0.546479305456908
GeSe,-0.48,-0.20001599499999934,-0.32201516659006835
Ge3N4,-0.09,-0.19361471428571317,-0.12756381790818036
HfN,-1.91,-1.872427264999999,-1.832135074867626
HfO2,-3.95,-3.913681729999998,-4.001909950088252
HgCl2,-0.77,-0.7477785333333339,-0.7681636457492047
HgO,-0.47,-0.3803597700000019,-0.4357267253662158
HgS,-0.3,-0.17119181099999992,-0.27633043363142207
HgSe,-0.24,-0.23742205000000283,-0.30323751968774815
HgTe,-0.22,-0.19255088500000284,-0.21745985269080848
InAs,-0.31,-0.3720087549999995,-0.2994270850627814
InN,-0.1,-0.10481233500000009,0.05849598939423828
InP,-0.39,-0.3192503895000005,-0.3825723601073481
InS,-0.7,-0.6744722260000007,-0.708628494749318
InSb,-0.16,-0.2332694499999981,-0.16777641155546164
InSe,-0.62,-0.6742751200000008,-0.6691082358056413
InTe,-0.5,-0.3982113500000004,-0.3521379638087012
In2O3,-1.92,-1.90541846,-1.9029027789418507
In2S3,-0.74,-0.7387345732,-0.7959448928600977
In2Se3,-0.67,-0.6839042679999977,-0.6939268041276876
In2Te3,-0.41,-0.4380598780000014,-0.3989946117313622
IrO2,-0.95,-1.0459522499999991,-0.8981273708501286
IrS2,-0.48,-0.5882948479999991,-0.5068321918704015
Ir2S3,-0.49,-0.6251526232000003,-0.4975121311838393
KCl,-2.26,-2.2062294099999997,-2.1878714991650217
KF,-2.94,-2.9179420425,-2.850523120031731
KSb,-0.43,-0.5689838074999969,-0.5256136973007806
KSb2,-0.37,-0.3919537783333311,-0.3464163411723599
K2O,-1.25,-1.1565602866666655,-1.1486092633816345
K2O2,-1.28,-1.1797898824999997,-1.186297412229429
K2S,-1.31,-1.2333552073333334,-1.2585852955584411
K2S2,-1.12,-1.0874674984999997,-1.143746695494638
K2Se,-1.36,-1.281735206666666,-1.2807498595959892
K3As,-0.48,-0.4496685662500006,-0.406005130747074
K3Bi,-0.6,-0.4982964312500009,-0.48276833359429006
K3Sb,-0.47,-0.5438391387500001,-0.5037200189934126
K5Sb4,-0.44,-0.5725319605555576,-0.5298842926769238
LaCl3,-2.78,-2.878211751250001,-2.744997978229007
LaN,-1.57,-1.7075309599999997,-1.3181236210000726
LaS,-2.36,-2.4930801860000003,-2.301137440143627
La2O3,-3.72,-3.8512247520000016,-3.6678298592573015
La2S3,-2.51,-2.6288464972000014,-2.5051776051755494
La2Te3,-1.63,-1.9830856100000005,-1.7631411320468147
LiCl,-2.12,-2.057609191,-2.0774693157125714
LiF,-3.19,-3.1974442235000007,-3.1682433365792813
Li2O,-2.07,-2.011526541333334,-2.0545328987783678
Li2O2,-1.64,-1.571402076,-1.6161276412769787
Li2S,-1.52,-1.5017445586666665,-1.5779320276218396
Li2Se,-1.45,-1.430568911333334,-1.4805409449927218
Li3Bi,-0.6,-0.611916797750002,-0.6537157534156144
Li3N,-0.43,-0.47501218525000066,-0.4433124758398881
Li3Sb,-0.83,-0.7358903652499986,-0.7530982988147379
MgCl2,-2.21,-2.1450755400000006,-2.177699220781245
MgF2,-3.88,-3.878816366666667,-3.8460253652701915
MgO,-3.11,-3.039588085,-3.1133128929142755
MgS,-1.79,-1.6652898660000002,-1.7887863411794838
MgSe,-1.52,-1.4748481350000002,-1.5590214572358079
MgTe,-1.08,-1.0568540950000003,-1.1001209152388682
Mg3As2,-0.91,-0.7937854579999992,-0.8267055726055077
Mg3Bi2,-0.32,-0.289235044000003,-0.36717169916105374
Mg3N2,-0.96,-0.9928365799999994,-0.9531753710398896
Mg3P2,-0.96,-0.8138350435999996,-0.9554780706411584
Mg3Sb2,-0.49,-0.5039678019999982,-0.5425588217996478
MnO,-2.0,-3.395179260000001,-2.0582171158126226
MnS,-1.11,-2.5013197060000003,-1.214129229077832
MnS2,-0.72,-1.409994394666666,-0.601676251152964
MnSb,-0.26,-1.4937681149999982,-0.10692833088397435
Mn2O3,-1.99,-3.048391117999999,-1.9887980404046615
Mn3O4,-2.05,-3.2054338342857145,-2.066592451949794
NaCl,-2.13,-2.1157673074999996,-2.064236926034285
NaF,-2.97,-3.0617665700000005,-2.961175176900995
NaSb,-0.33,-0.46607932999999946,-0.38953674917004477
NaTe3,-0.35,-0.48426380249999923,-0.4501859449226444
Na2O,-1.43,-1.4595044300000002,-1.4073234458739858
Na2O2,-1.32,-1.31471478,-1.2880498390986928
Na2S,-1.26,-1.3015034373333332,-1.282503564717458
Na2S2,-1.03,-1.0312803484999993,-1.054387074863901
Na2Se,-1.18,-1.297199853333333,-1.2519845454216731
Na2Se2,-0.97,-1.0219408800000007,-1.0057244534202248
Na3As,-0.53,-0.5764780074999996,-0.48305586605096895
Na3Bi,-0.46,-0.5145925150000004,-0.44930571139818554
Na3Sb,-0.53,-0.5919494350000001,-0.5020716092973068
NbN,-1.22,-1.2975797349999993,-1.1007408408172399
NbO2,-2.75,-2.7969725266666665,-2.7808362773879978
Nb2O5,-2.81,-2.8271341499999982,-2.820429249014398
NiF2,-2.25,-2.7016134400000005,-2.5381993550471287
NiO,-1.24,-1.7279963699999996,-1.6057865525796835
NiS,-0.43,-0.6773183459999998,-0.6048801958448902
NiSb,-0.34,-0.38164366500000213,-0.20955620765103689
NiSe,-0.31,-0.4684090999999988,-0.35664779690121406
NiTe,-0.28,-0.28987040000000164,-0.13720259490427722
Ni2O3,-1.01,-1.149023742,-1.061232525818309
Ni2Te3,-0.3,-0.26521347599999956,-0.14087267460782016
Ni3P,-0.54,-0.614131187249999,-0.44534355129473546
Ni3S2,-0.42,-0.5849497927999991,-0.4681387079532229
PdCl2,-0.69,-0.7267133566666667,-0.6272880544096088
PdO,-0.44,-0.7505565149999995,-0.6262078483568203
PdS,-0.39,-0.5246680159999997,-0.45009101662203044
PdS2,-0.28,-0.38346553133333333,-0.3835563728490972
Pd4S,-0.14,-0.3182225623999983,-0.1092434494133073
PtO,-0.37,-0.5844055350000019,-0.3153899283286421
PtO2,-0.57,-0.701181266666668,-0.5384652584766982
PtS,-0.42,-0.6223439810000002,-0.4031000415938486
PtS2,-0.38,-0.460814301333329,-0.36446051616364156
Pt3O4,-0.4,-0.6369940042857171,-0.4135353683920958
RbCl,-2.26,-2.2072378725000004,-2.209583126246841
RbF,-2.89,-2.88939678,-2.842681022113551
RbSb,-0.52,-0.5756617949999985,-0.5529948493825998
RbSb2,-0.35,-0.4163757933333301,-0.384640465893573
Rb2O,-1.17,-1.0866106966666678,-1.1062638928240602
Rb2O2,-1.22,-1.1626297000000019,-1.1898403943112488
Rb2S,-1.25,-1.2029353440000012,-1.2557696516675325
Rb3Sb,-0.45,-0.5102840549999996,-0.5012196821161439
RhCl3,-0.78,-0.9965597262500019,-0.7928629209846534
RhO2,-0.85,-1.0938382766666663,-0.8553456878507456
Rh2O3,-0.84,-1.1709890160000014,-0.8748212716663346
Rh2S3,-0.54,-0.7348715972000008,-0.4984298535845852
ScAs,-1.39,-1.5368788000000002,-1.6050831494199898
ScCl3,-2.4,-2.39231865125,-2.442547395210453
ScF3,-4.22,-4.211269337499999,-4.187906564010516
Sc2O3,-3.94,-3.782688652,-3.892801786427616
SiO2,-3.13,-3.0564191599999995,-3.033788193149173
SiS2,-0.88,-0.7488998913333328,-0.792631147502784
SiSe2,-0.61,-0.5176536300000004,-0.5089540155778826
Si3N4,-1.1,-1.3528021614285717,-1.1406609491100224
SnO,-1.48,-1.4340207400000011,-1.4247388898467612
SnO2,-1.97,-1.9571388933333342,-1.9675787228221135
SnS,-0.57,-0.481479341,-0.5219691581119683
SnS2,-0.53,-0.4938751513333344,-0.5706772038423887
SnSe,-0.47,-0.46085059500000014,-0.4620172591682916
SnSe2,-0.43,-0.44155602000000016,-0.4659272019174878
SrO,-3.07,-3.016673214999999,-3.0956389637459196
SrO2,-2.19,-2.1334837233333324,-2.2027552854215506
SrS,-2.45,-2.452395200999998,-2.581132617011127
Sr2Bi,-1.08,-0.9335117333333329,-1.0217079382523575
Sr2Sb,-1.11,-1.0542490499999981,-1.1096572254511894
TaN,-1.3,-1.3488755549999993,-1.2279974716024178
TaS2,-1.22,-1.1671351713333327,-1.2680016855983898
TiAs,-0.78,-0.9979706400000001,-0.8884827804843578
TiCl4,-1.7,-1.7464703740000005,-1.7156069471229103
TiN,-1.58,-1.787262909999999,-1.5870483960273365
TiO2,-3.26,-3.210231686666667,-3.191845024194727
TiS,-1.41,-1.5249198460000013,-1.5221699251708927
TiS2,-1.41,-1.4980982913333325,-1.5460738518816715
Ti2O3,-3.15,-3.1083212759999994,-3.076280643279111
VF4,-2.91,-3.1815983979999998,-2.9109400819817806
VN,-1.13,-1.3037490399999996,-0.7002913497076744
VO,-2.24,-3.080555484999998,-2.62479072058602
VO2,-2.47,-2.739248676666667,-2.4520332299816197
V2O3,-2.53,-3.120291168,-2.765655994223381
V2O5,-2.29,-2.370663914285715,-2.131605415523219
YAs,-1.68,-1.8211901949999998,-1.777116965134276
YCl3,-2.59,-2.631153406250002,-2.6252433605675964
YF3,-4.45,-4.5390917575,-4.45959019436766
Y2O3,-3.95,-3.892352113999999,-3.9126431849990437
ZnCl2,-1.43,-1.4702635600000005,-1.4158671588702443
ZnF2,-2.64,-2.8113958133333337,-2.6915847300258577
ZnO,-1.81,-1.936360445000001,-1.879555130047776
ZnP2,-0.21,-0.3429445693333335,-0.42695191445377273
ZnS,-1.07,-1.0811987060000003,-1.0741650583129836
ZnSb,-0.08,-0.0894228799999972,0.017260074880873333
ZnSe,-0.85,-0.9378371399999992,-0.8914803393693056
ZnTe,-0.61,-0.6199033000000007,-0.5326399973723674
Zn3As2,-0.28,-0.29034175000000034,-0.16662571716570654
Zn3N2,-0.05,-0.31809165399999983,-0.12179429760008986
Zn3P2,-0.33,-0.3436149515999986,-0.3286218312013574
ZrN,-1.89,-1.963908140000001,-1.8074050576466938
ZrO2,-3.8,-3.873299243333333,-3.8840535352742975
ZrS2,-1.96,-1.853893244666665,-1.9310097596279074