Chemical Formula,Experimental Enthalpy (eV),"Calculated Enthalpy (uncorrected, eV)",FERE Corrected Enthalpy (eV)
Ag2O,-0.11,-0.19305869500000009,-0.10721301756990442
Ag2O2,-0.06,-0.18741922000000244,-0.10460745785933767
Ag2S,-0.11,-0.1347945103333359,-0.10410490723567041
Ag2Se,-0.15,-0.1429506899999969,-0.09920546471530638
AlAs,-0.61,-0.6014693099999988,-0.7337432085370779
AlCl3,-1.82,-1.7878959425000005,-1.8373827411433732
AlF3,-3.9,-3.91547993,-3.900826825495174
AlN,-1.61,-1.735483145,-1.7260596446899754
AlP,-0.85,-0.7437477099999992,-0.987982508229873
Al2O3,-3.47,-3.424109367,-3.5140458708505933
Al2S3,-1.5,-1.2499882445999986,-1.4392056822489707
Al2Se3,-1.18,-0.9854387319999972,-1.1511560497123186
Al2Te3,-0.68,-0.5013407019999988,-0.642751498241313
AuCl,-0.18,-0.3112937300000027,-0.0842874447569173
AuCl3,-0.3,-0.43239052250000043,-0.2959775316348683
AuF3,-0.94,-1.1924316400000023,-0.9918787459866678
BaO,-2.86,-2.763365777499999,-2.816986647045848
BaO2,-2.19,-2.121330273333333,-2.1325075142731102
BaS,-2.38,-2.3728971004999977,-2.5092520815444956
BeO,-3.14,-3.0769868149999997,-3.0786200203400877
BeS,-1.21,-1.2415286080000003,-1.3258959248387354
Be3N2,-1.22,-1.3082466649999993,-1.2127312073094885
CaCl2,-2.75,-2.7299008199999997,-2.7815593071086497
CaF2,-4.21,-4.277271430000002,-4.271916669865807
CaO,-3.29,-3.2956192474999995,-3.3820716665139745
CaS,-2.45,-2.4474089754999984,-2.6165955060126205
Ca3N2,-0.91,-1.00153574,-1.0078033387181549
Ca3P2,-1.22,-0.8598182720000012,-1.0690125095500747
CdCl2,-1.35,-1.32358072,-1.3442476922261595
CdF2,-2.42,-2.464822463333334,-2.428476188316649
CdO,-1.34,-1.2531775725000003,-1.2931427191902358
CdS,-0.78,-0.7502750804999998,-0.8729743386888842
CdSb,-0.07,-0.06665038500000264,-0.13825582830957472
CdSe,-0.75,-0.6950736999999982,-0.7981895249083379
CdTe,-0.48,-0.48256726500000013,-0.5654276553491684
Cd3As2,-0.08,-0.12093275200000449,-0.18477354300735555
Cd3N2,0.33,0.42575644800000134,0.4752735760703331
Cd3P2,-0.24,-0.09348040400000172,-0.2468899147615872
CoF2,-2.39,-3.0813088566666678,-2.4569420126241908
CoF3,-2.1,-2.603508077500001,-2.1023980526302823
CoO,-1.23,-2.2448653325,-1.40279962565155
CoS,-0.43,-1.2068946154999995,-0.4475630201501968
CoSb3,-0.17,-0.3315806675000026,0.07884674913140088
CoSe,-0.32,-1.081457725,-0.3025426963696525
Co3O4,-1.32,-2.1130143142857145,-1.3807137060909906
Co3S4,-0.53,-1.1279459205714286,-0.49019858266087063
CrF4,-2.58,-2.906665684000001,-2.445836725781715
CrN,-0.65,-1.7184326199999997,-0.651912716829635
CrO2,-2.07,-2.5844468166666665,-1.9423779652565425
CrS,-0.81,-1.7408235954999984,-0.8973094380196436
Cr2O3,-2.36,-3.203264435,-2.447523816562324
CuF2,-1.88,-2.0291086566666663,-1.956809457024671
CuO,-0.82,-0.9461322325000001,-0.9321679922522694
CuS,-0.28,-0.29042010050000044,-0.3591899717509186
CuSe,-0.21,-0.18961668000000031,-0.23880311797037734
Cu2O,-0.58,-0.5684783483333339,-0.5744293667604813
Cu2S,-0.28,-0.2464909403333332,-0.30759803309291317
Cu2Sb,-0.04,-0.02510704333333062,-0.052151592840038084
Cu2Se,-0.21,-0.12980570000000094,-0.17785717057255113
Cu2Te,0.07,0.0420625699999988,0.007514722466893886
Cu3N,0.19,0.1662133850000007,0.220440554331093
Cu3P,-0.17,-0.06689214750000083,-0.1394941274388568
Cu3Sb,-0.02,0.038938967499998256,0.007210171425739986
FeF2,-2.46,-3.448217160000001,-2.5070912310007833
FeO,-1.41,-2.7668891674999987,-1.4496848332164376
FeS,-0.52,-1.6992742904999982,-0.4648040677150842
FeSe,-0.39,-1.5035388199999993,-0.24948516393454412
Fe2O3,-1.71,-2.820712153000001,-1.7522066823186762
Fe3O4,-1.66,-2.7875961628571417,-1.6480338740037521
GaAs,-0.37,-0.37973094000000174,-0.5894583014234023
GaCl3,-1.36,-1.2702044824999987,-1.358418012586533
GaF3,-3.01,-2.8700383224999992,-2.8941119494383347
GaN,-0.81,-0.6571724099999994,-0.7252023725762982
GaP,-0.53,-0.45392541000000186,-0.7756136711161989
GaS,-1.09,-0.7178443754999986,-1.0088800837663054
GaSb,-0.22,-0.1593546400000001,-0.39929653338699467
GaSe,-0.83,-0.6218729399999994,-0.8933252149857616
Ga2O3,-2.26,-2.0986931270000015,-2.250592401159653
Ga2S3,-1.07,-0.7555832646000014,-1.006763472558032
Ga2Se3,-0.85,-0.633596817999998,-0.8612769060213793
GeO2,-2.0,-1.8581303599999994,-1.9285847926150173
GeS,-0.39,-0.25521082550000074,-0.480481594057359
GeS2,-0.66,-0.3655432673333318,-0.5463098486132125
GeSe,-0.48,-0.19162800500000188,-0.3973153402768155
Ge3N4,-0.09,-0.16436722142856905,-0.11570105750700017
HfN,-1.91,-1.862567140000003,-1.8486103294724145
HfO2,-3.95,-3.9312865700000024,-3.9909264470183907
HgCl2,-0.77,-0.7207183733333314,-0.7483655506960408
HgO,-0.47,-0.3516502225000053,-0.40208567689506225
HgS,-0.3,-0.14506394050000182,-0.27823350639371114
HgSe,-0.24,-0.2057340749999952,-0.3193202076131598
HgTe,-0.22,-0.16948158500000687,-0.2628122830540036
InAs,-0.31,-0.31120794000000274,-0.3084468601569341
InN,-0.1,-0.08789881499999908,0.05655966369017307
InP,-0.39,-0.28940091000000123,-0.3986007298497256
InS,-0.7,-0.6618872955000015,-0.7404345624998392
InSb,-0.16,-0.17072130999999757,-0.19817476212052298
InSe,-0.62,-0.6361601649999997,-0.6951239987192928
InTe,-0.5,-0.33253717000000904,-0.3712455691601235
In2O3,-1.92,-1.9089552970000028,-1.8908638181464794
In2S3,-0.74,-0.7118978986000002,-0.793087353544854
In2Se3,-0.67,-0.6295026619999987,-0.6871919970082047
In2Te3,-0.41,-0.3603806540000051,-0.393763467537201
IrO2,-0.95,-1.0549450733333334,-0.8810515925264942
IrS2,-0.48,-0.579317997333329,-0.5157366651913549
Ir2S3,-0.49,-0.5946127626000021,-0.4999635226846408
KCl,-2.26,-2.215977855,-2.201904695702261
KF,-2.94,-2.9213509350000013,-2.86451784027013
KSb,-0.43,-0.5144259600000005,-0.5180479374290066
KSb2,-0.37,-0.3434677333333364,-0.34240591060810743
K2O,-1.25,-1.1816437816666674,-1.1688560281703495
K2O2,-1.28,-1.213911187499999,-1.1858928683096686
K2S,-1.31,-1.2399804069999998,-1.2823487278361132
K2S2,-1.12,-1.0901022054999991,-1.1448179978083175
K2Se,-1.36,-1.2653305133333344,-1.2946432119824205
K3As,-0.48,-0.42440555750000186,-0.41994596917855986
K3Bi,-0.6,-0.45121557000000223,-0.4768722063174735
K3Sb,-0.47,-0.49135821750000197,-0.5020058951603588
K5Sb4,-0.44,-0.5145318166666691,-0.519715060813752
LaCl3,-2.78,-2.8959090474999982,-2.754475215157999
LaN,-1.57,-1.7179595550000002,-1.326694792719234
LaS,-2.36,-2.4825999805000016,-2.3143409639092454
La2O3,-3.72,-3.8967723770000022,-3.6812358712740036
La2S3,-2.51,-2.629999314599999,-2.5137437426723777
La2Te3,-1.63,-1.8970853620000014,-1.733023148664722
LiCl,-2.12,-2.0818576165000007,-2.0876709959117123
LiF,-3.19,-3.2155420665,-3.17859551047958
Li2O,-2.07,-2.0494937869999994,-2.063221418449615
Li2O2,-1.64,-1.6175291889999999,-1.6093974085191203
Li2S,-1.52,-1.5225120656666669,-1.5913957714487144
Li2Se,-1.45,-1.425030468666666,-1.4808585522616842
Li3Bi,-0.6,-0.5936954847500004,-0.6491819291316503
Li3N,-0.43,-0.5022579497499997,-0.45677947006918274
Li3Sb,-0.83,-0.6935138872500008,-0.7339913729745327
MgCl2,-2.21,-2.1636430966666667,-2.18593292393532
MgF2,-3.88,-3.8893185533333328,-3.8545951333591426
MgO,-3.11,-3.080353797499999,-3.122753226753977
MgS,-1.79,-1.6719959204999997,-1.7971294612526254
MgSe,-1.52,-1.4494488399999987,-1.5549989474720824
MgTe,-1.08,-0.9896770650000022,-1.0749717379129144
Mg3As2,-0.91,-0.7497581740000001,-0.8165201040838411
Mg3Bi2,-0.32,-0.26177072599999746,-0.376718615506104
Mg3N2,-0.96,-1.0132083139999992,-0.9666123250061588
Mg3P2,-0.96,-0.8128687360000001,-0.969199385838077
Mg3Sb2,-0.49,-0.4232632859999995,-0.5141968416547172
MnO,-2.0,-3.2929490475000005,-2.024127294188343
MnS,-1.11,-2.371236315499999,-1.1851486736869887
MnS2,-0.72,-1.3616654306666665,-0.6015264050329682
MnSb,-0.26,-1.375527990000002,-0.1383465333076792
Mn2O3,-1.99,-3.028987159000002,-1.9991877530962001
Mn3O4,-2.05,-3.162772374285715,-2.064680869122526
NaCl,-2.13,-2.1263367000000013,-2.0759041669312897
NaF,-2.97,-3.0657736,-2.9725811314991564
NaSb,-0.33,-0.4083855600000028,-0.37564816365803466
NaTe3,-0.35,-0.4766618725000029,-0.4719608833715654
Na2O,-1.43,-1.4829275283333334,-1.4216606098090498
Na2O2,-1.32,-1.3491958075000001,-1.2848181145386963
Na2S,-1.26,-1.304470163666667,-1.298359319474816
Na2S2,-1.03,-1.0317127929999987,-1.050069211537343
Na2Se,-1.18,-1.2766228933333323,-1.2574564269544528
Na2Se2,-0.97,-1.0106724474999993,-1.0094454327568005
Na3As,-0.53,-0.5452746175000005,-0.486275968522099
Na3Bi,-0.46,-0.46358731750000004,-0.4347048931610118
Na3Sb,-0.53,-0.5332746325000013,-0.4893832495038968
NbN,-1.22,-1.290620950000001,-1.1413732234994178
NbO2,-2.75,-2.819559626666667,-2.7890055597030616
Nb2O5,-2.81,-2.8495932649999998,-2.812874062420858
NiF2,-2.25,-2.810080650000001,-2.6065421039304133
NiO,-1.24,-1.9080831724999996,-1.6972599126108818
NiS,-0.43,-0.7671551304999991,-0.6390659821095301
NiSb,-0.34,-0.4276792200000017,-0.24849625673022047
NiSe,-0.31,-0.460803245000001,-0.3131306633289874
NiTe,-0.28,-0.3191209750000006,-0.15119295876981553
Ni2O3,-1.01,-1.3088634070000011,-1.1254627958342325
Ni2Te3,-0.3,-0.3031440699999962,-0.1712177512249468
Ni3P,-0.54,-0.6235319575000009,-0.40084540797677626
Ni3S2,-0.42,-0.5810674043999995,-0.4090087849864489
PdCl2,-0.69,-0.753229873333332,-0.628991116011413
PdO,-0.44,-0.8177588024999984,-0.6403653548681199
PdS,-0.39,-0.5547952304999981,-0.4601358943667684
PdS2,-0.28,-0.40651487066666664,-0.37399471548615537
Pd4S,-0.14,-0.3145118622000041,-0.10800200035187117
PtO,-0.37,-0.5966005875000064,-0.23379407805269636
PtO2,-0.57,-0.8257700500000027,-0.5593290382776767
PtS,-0.42,-0.6674240454999989,-0.3873516475513412
PtS2,-0.38,-0.5501069440000018,-0.393978080942541
Pt3O4,-0.4,-0.7371159242857134,-0.41560891386339854
RbCl,-2.26,-2.2183859550000005,-2.220841864240912
RbF,-2.89,-2.89480923,-2.8545052038087793
RbSb,-0.52,-0.5208630499999991,-0.5410140959676539
RbSb2,-0.35,-0.3530261766666645,-0.36298373296720854
Rb2O,-1.17,-1.1124121883333327,-1.1216631928885477
Rb2O2,-1.22,-1.1977141574999983,-1.1862249068483184
Rb2S,-1.25,-1.2071538203333319,-1.2715608992209795
Rb3Sb,-0.45,-0.45615727500000247,-0.49159855546832887
RhCl3,-0.78,-1.0365153424999995,-0.7974820047168851
RhO2,-0.85,-1.1715230300000006,-0.8494915985947861
Rh2O3,-0.84,-1.2619103929999995,-0.8902146785682163
Rh2S3,-0.54,-0.7553598206000004,-0.4829450399665916
ScAs,-1.39,-1.4901979599999997,-1.5813521640989165
ScCl3,-2.4,-2.417247455,-2.4461744064242907
ScF3,-4.22,-4.225147864999999,-4.189934913276092
Sc2O3,-3.94,-3.8382450909999988,-3.895285839300064
SiO2,-3.13,-3.0880142033333335,-3.018945262002539
SiS2,-0.88,-0.7499092573333334,-0.791152464667403
SiSe2,-0.61,-0.4958448733333327,-0.5109768362933451
Si3N4,-1.1,-1.3707569928571428,-1.1427036338623862
SnO,-1.48,-1.4209586324999997,-1.4504251252097191
SnO2,-1.97,-1.9352483099999986,-1.9303226330490233
SnS,-0.57,-0.45923040549999783,-0.5714310097083661
SnS2,-0.53,-0.44406675399999784,-0.5494532257138877
SnSe,-0.47,-0.41569332499999945,-0.5083104959278231
SnSe2,-0.43,-0.36417115999999794,-0.44344638733982816
SrO,-3.07,-3.049392772500001,-3.1100146815897283
SrO2,-2.19,-2.1755699366666668,-2.191414537302362
SrS,-2.45,-2.4563990055,-2.599755026088374
Sr2Bi,-1.08,-0.8767545500000011,-1.0232592434994718
Sr2Sb,-1.11,-0.9762841699999996,-1.10277691862332
TaN,-1.3,-1.3157040299999991,-1.2400750824737585
TaS2,-1.22,-1.1311126773333342,-1.2599499450174914
TiAs,-0.78,-0.947674475000003,-0.884076229748004
TiCl4,-1.7,-1.7546447880000002,-1.7067214301016307
TiN,-1.58,-1.8003362799999998,-1.595040635900899
TiO2,-3.26,-3.2554307233333333,-3.187511377970717
TiS,-1.41,-1.5264494054999993,-1.5441595070909067
TiS2,-1.41,-1.502692214000002,-1.5450850173022488
Ti2O3,-3.15,-3.1439663030000005,-3.0772050918193328
VF4,-2.91,-3.1890623600000003,-2.908401226089441
VN,-1.13,-1.3006474299999997,-0.6845470875989506
VO,-2.24,-3.1783392374999995,-2.7025105292903095
VO2,-2.47,-2.7790357499999985,-2.437246605769417
V2O3,-2.53,-3.187102845000001,-2.791697875177775
V2O5,-2.29,-2.4117178450000005,-2.108225719049163
YAs,-1.68,-1.7615780600000015,-1.7540362019560582
YCl3,-2.59,-2.6454664799999996,-2.625045400352864
YF3,-4.45,-4.552501552499999,-4.467940569704664
Y2O3,-3.95,-3.9359144729999995,-3.9139983715857767
ZnCl2,-1.43,-1.4578466500000005,-1.411718296468995
ZnF2,-2.64,-2.7890602899999997,-2.6859186892261513
ZnO,-1.81,-1.9339130175,-1.87368517555449
ZnP2,-0.21,-0.32371324666666607,-0.410173565743591
ZnS,-1.07,-1.0558410654999992,-1.078347335053138
ZnSb,-0.08,-0.03543312500000084,-0.00684557967382915
ZnSe,-0.85,-0.8782620049999998,-0.8811848412725958
ZnTe,-0.61,-0.5305201850000003,-0.5131875867134248
Zn3As2,-0.28,-0.22438578000000006,-0.1679949846444572
Zn3N2,-0.05,-0.29087269599999954,-0.12112398156677387
Zn3P2,-0.33,-0.3010409299999992,-0.3342188543986936
ZrN,-1.89,-1.9819866200000007,-1.8217138846307854
ZrO2,-3.8,-3.9195228866666674,-3.88161881379064
ZrS2,-1.96,-1.851497187333332,-1.92390526312217