Chemical Formula,Experimental Enthalpy (eV),"Calculated Enthalpy (uncorrected, eV)",FERE Corrected Enthalpy (eV)
Ag2O,-0.11,-0.1672694133333342,-0.11301491721333434
Ag2O2,-0.06,-0.1912310374999997,-0.1472145101381006
Ag2S,-0.11,-0.11193236733333123,-0.07313610307657115
Ag2Se,-0.15,-0.12645791666666875,-0.06756296619262751
AlAs,-0.61,-0.6282580800000002,-0.7217273856869486
AlCl3,-1.82,-1.7647652487500007,-1.8476904223069557
AlF3,-3.9,-3.903045795,-3.942478321702591
AlN,-1.61,-1.7121695399999997,-1.6924249268962033
AlP,-0.85,-0.7384366294999998,-0.9596524109868723
Al2O3,-3.47,-3.37442919,-3.5232922081733036
Al2S3,-1.5,-1.2373395971999996,-1.4140274327271314
Al2Se3,-1.18,-1.008525963999999,-1.1490361643360316
Al2Te3,-0.68,-0.5604062459999994,-0.654815752445711
AuCl,-0.18,-0.3033475674999977,-0.11126796547776507
AuCl3,-0.3,-0.3913064462499989,-0.2851981814327402
AuF3,-0.94,-1.1387687474999986,-0.9891678358283773
BaO,-2.86,-2.7308910650000016,-2.827031747249645
BaO2,-2.19,-2.078325460000002,-2.1379850411372296
BaS,-2.38,-2.371662661000002,-2.4909906910445017
BeO,-3.14,-3.0109017885,-3.1054368355570636
BeS,-1.21,-1.2067089895,-1.3244313843519215
Be3N2,-1.22,-1.2605675561999987,-1.2093509040121346
CaCl2,-2.75,-2.7106642900000004,-2.8004139960891656
CaF2,-4.21,-4.26354314,-4.314632715551954
CaO,-3.29,-3.2485882949999993,-3.396698471202228
CaS,-2.45,-2.435296731,-2.606594254997086
Ca3N2,-0.91,-0.9804604339999983,-0.9935339367863335
Ca3P2,-1.22,-0.8645092055999996,-1.0703510240588685
CdCl2,-1.35,-1.3400217066666684,-1.3754071247065056
CdF2,-2.42,-2.4978626266666666,-2.4945879141692906
CdO,-1.34,-1.2663398799999985,-1.3329036241282353
CdS,-0.78,-0.7808579109999982,-0.8706090029230911
CdSb,-0.07,-0.1076644050000013,-0.08492716036604975
CdSe,-0.75,-0.7548625799999975,-0.8144656425971739
CdTe,-0.48,-0.5678292399999982,-0.5890150576885738
Cd3As2,-0.08,-0.17700276200000076,-0.1827916813301357
Cd3N2,0.33,0.4008675260000018,0.4856497417024599
Cd3P2,-0.24,-0.1286168876000005,-0.23660298757007467
CoF2,-2.39,-2.4332569333333325,-2.2212697414252616
CoF3,-2.1,-2.21738782,-2.038865645214421
CoO,-1.23,-1.4022448150000013,-1.15573984001219
CoS,-0.43,-0.5887263709999999,-0.3654087438070466
CoSb3,-0.17,-0.27644739249999617,-0.012592111319019494
CoSe,-0.32,-0.45815092000000135,-0.20468526348113159
Co3O4,-1.32,-1.5973629214285714,-1.3841725684265052
Co3S4,-0.53,-0.742455675428569,-0.5557651484777709
CrF4,-2.58,-2.691984702,-2.561507156744105
CrN,-0.65,-0.985606774999999,-0.5998668070603319
CrO2,-2.07,-2.244383063333334,-2.1222215717392388
CrS,-0.81,-0.9523991509999998,-0.7989955719475166
Cr2O3,-2.36,-2.5097407399999994,-2.3658074743046074
CuF2,-1.88,-1.8397921066666665,-1.8381246815717571
CuO,-0.82,-0.7769026900000018,-0.8458773652319351
CuS,-0.28,-0.28137004600000104,-0.37353206902679226
CuSe,-0.21,-0.19286426000000212,-0.25487825370087513
Cu2O,-0.58,-0.5079755700000016,-0.6043760106717807
Cu2S,-0.28,-0.20443611733333356,-0.31629478986835124
Cu2Sb,-0.04,0.018074213333332995,-0.018792234830324144
Cu2Se,-0.21,-0.1017482066666678,-0.1935081929844055
Cu2Te,0.07,0.07240559999999856,0.0062571102879947675
Cu3N,0.19,0.2076277149999992,0.20208891215445846
Cu3P,-0.17,-0.03997290474999993,-0.16599190489087512
Cu3Sb,-0.02,0.08963533250000033,0.02417250348938893
FeF2,-2.46,-2.7434054199999998,-2.3844866727241745
FeO,-1.41,-1.7684280149999996,-1.3015257069605592
FeS,-0.52,-0.9736776859999985,-0.5299627257554178
FeSe,-0.39,-0.8400587099999992,-0.36619572042949855
Fe2O3,-1.71,-2.1261854999999996,-1.7500031293509266
Fe3O4,-1.66,-2.065489989999999,-1.6633876372393936
GaAs,-0.37,-0.4554297149999993,-0.5651495361750154
GaCl3,-1.36,-1.2929089737499995,-1.3839594050509882
GaF3,-3.01,-2.8994886525000005,-2.947046436946625
GaN,-0.81,-0.700220019999998,-0.6967259223842692
GaP,-0.53,-0.5124640194999994,-0.7499303164749396
GaS,-1.09,-0.7657985509999996,-0.9946408422714548
GaSb,-0.22,-0.2347527350000007,-0.35110668971441683
GaSe,-0.83,-0.6924441150000007,-0.8911383769455377
Ga2O3,-2.26,-2.1093217179999995,-2.271185148563758
Ga2S3,-1.07,-0.7988912331999998,-0.988579481117587
Ga2Se3,-0.85,-0.702584084,-0.8560946967264869
GeO2,-2.0,-1.8554266166666669,-1.9762620817386676
GeS,-0.39,-0.24289128600000076,-0.4539831419466598
GeS2,-0.66,-0.3891222479999996,-0.5408741767984774
GeSe,-0.48,-0.20001599499999934,-0.38095982162074193
Ge3N4,-0.09,-0.19361471428571317,-0.11374787129779763
HfN,-1.91,-2.0376549500000003,-1.889551969725737
HfO2,-3.95,-3.927368853333334,-3.9636320201828403
HgCl2,-0.77,-0.7477785333333339,-0.7820473967869267
HgO,-0.47,-0.3803597700000019,-0.44524868224887015
HgS,-0.3,-0.17119181099999992,-0.2592680710437243
HgSe,-0.24,-0.23742205000000283,-0.29535028071781255
HgTe,-0.22,-0.19255088500000284,-0.21206187080920813
InAs,-0.31,-0.3720087549999995,-0.2975065710783831
InN,-0.1,-0.10481233500000009,0.08290376771236119
InP,-0.39,-0.3192503895000005,-0.3724946813783081
InS,-0.7,-0.6744722260000007,-0.7190925121748233
InSb,-0.16,-0.2332694499999981,-0.16540139961778166
InSe,-0.62,-0.6742751200000008,-0.6887473768489052
InTe,-0.5,-0.3982113500000004,-0.37426636194030394
In2O3,-1.92,-1.90541846,-1.9199042864864508
In2S3,-0.74,-0.7387345732,-0.7810452170402812
In2Se3,-0.67,-0.6839042679999977,-0.6900372766491785
In2Te3,-0.41,-0.4380598780000014,-0.3980921927588582
IrO2,-0.95,-0.9367580266666664,-0.9196247526170586
IrS2,-0.48,-0.49628960466666666,-0.5100727943435382
Ir2S3,-0.49,-0.48016532319999783,-0.49009073591182073
KCl,-2.26,-2.2062294099999997,-2.216510082706141
KF,-2.94,-2.9179420425,-2.8992276173032314
KSb,-0.43,-0.5689838074999969,-0.4933806447062956
KSb2,-0.37,-0.3919537783333311,-0.27758347026687363
K2O,-1.25,-1.1565602866666655,-1.1792582616538414
K2O2,-1.28,-1.1797898824999997,-1.1934877084684796
K2S,-1.31,-1.2333552073333334,-1.2715114141837465
K2S2,-1.12,-1.0874674984999997,-1.1243526722633375
K2Se,-1.36,-1.281735206666666,-1.2997927272998016
K3As,-0.48,-0.4496685662500006,-0.4288990545957301
K3Bi,-0.6,-0.4982964312500009,-0.49884861459836927
K3Sb,-0.47,-0.5438391387500001,-0.5263866938654296
K5Sb4,-0.44,-0.5725319605555576,-0.5098511795194377
LaCl3,-2.78,-2.7799546612500006,-2.727704282139481
LaN,-1.57,-1.6141369900000022,-1.3240412715612564
LaS,-2.36,-2.4357634610000005,-2.3780041314484386
La2O3,-3.72,-3.7619598999999995,-3.694542033905344
La2S3,-2.51,-2.5159937412000004,-2.476400692459174
La2Te3,-1.63,-1.8774378580000017,-1.755566480177754
LiCl,-2.12,-2.057609191,-2.0928558613665764
LiF,-3.19,-3.1974442235000007,-3.203695795963667
Li2O,-2.07,-2.011526541333334,-2.067512513201088
Li2O2,-1.64,-1.571402076,-1.610065899628915
Li2S,-1.52,-1.5017445586666665,-1.5731887623976597
Li2Se,-1.45,-1.430568911333334,-1.4819144288470483
Li3Bi,-0.6,-0.611916797750002,-0.6499179775890234
Li3N,-0.43,-0.47501218525000066,-0.43508471069101073
Li3Sb,-0.83,-0.7358903652499986,-0.7558869168560811
MgCl2,-2.21,-2.1450755400000006,-2.19778014456462
MgF2,-3.88,-3.878816366666667,-3.892860840694075
MgO,-3.11,-3.039588085,-3.1321306089154106
MgS,-1.79,-1.6652898660000002,-1.7810197377102677
MgSe,-1.52,-1.4748481350000002,-1.5604299773843504
MgTe,-1.08,-1.0568540950000003,-1.1040186924757496
Mg3As2,-0.91,-0.7937854579999992,-0.8307489130747484
Mg3Bi2,-0.32,-0.289235044000003,-0.3603132110789716
Mg3N2,-0.96,-0.9928365799999994,-0.9392289000421513
Mg3P2,-0.96,-0.8138350435999996,-0.9529956793146873
Mg3Sb2,-0.49,-0.5039678019999982,-0.546238563906266
MnO,-2.0,-2.1315394550000004,-1.8516433220964945
MnS,-1.11,-1.3016707109999999,-1.0449619258913518
MnS2,-0.72,-0.8952435080000001,-0.7351283427616053
MnSb,-0.26,-0.4712033799999986,-0.10200625833430976
Mn2O3,-1.99,-2.263428947999999,-2.036851517459675
Mn3O4,-2.05,-2.30271024,-2.060898894498767
NaCl,-2.13,-2.1157673074999996,-2.0853779927747977
NaF,-2.97,-3.0617665700000005,-3.0023821573718887
NaSb,-0.33,-0.46607932999999946,-0.34980617977495143
NaTe3,-0.35,-0.48426380249999923,-0.39605952156527735
Na2O,-1.43,-1.4595044300000002,-1.427975755078717
Na2O2,-1.32,-1.31471478,-1.2877426185371368
Na2S,-1.26,-1.3015034373333332,-1.2854329942752887
Na2S2,-1.03,-1.0312803484999993,-1.0274955348319939
Na2Se,-1.18,-1.297199853333333,-1.2610307240580099
Na2Se2,-0.97,-1.0219408800000007,-0.9880080370060789
Na3As,-0.53,-0.5764780074999996,-0.494703514698716
Na3Bi,-0.46,-0.5145925150000004,-0.4541397172013575
Na3Sb,-0.53,-0.5919494350000001,-0.5134920089684147
NbN,-1.22,-1.2870559650000004,-1.1799957947241637
NbO2,-2.75,-2.694410943333336,-2.7580359835151262
Nb2O5,-2.81,-2.7613575157142867,-2.813992890000449
NiF2,-2.25,-2.2998666199999995,-2.259385758187283
NiO,-1.24,-1.1768216599999999,-1.1875761801552223
NiS,-0.43,-0.5084921510000004,-0.5424340189500807
NiSb,-0.34,-0.3269146499999991,-0.2483681813930403
NiSe,-0.31,-0.400838555,-0.40463239362416203
NiTe,-0.28,-0.2617846650000004,-0.2271612587155616
Ni2O3,-1.01,-0.9040770999999992,-0.9100201919066577
Ni2Te3,-0.3,-0.22696959799999944,-0.17845917817906526
Ni3P,-0.54,-0.5287951722499997,-0.5674839397758049
Ni3S2,-0.42,-0.5083440187999997,-0.542459845439673
PdCl2,-0.69,-0.6563909000000004,-0.6014996521050998
PdO,-0.44,-0.6328267249999975,-0.563975470226131
PdS,-0.39,-0.46789152599999895,-0.4222276190209886
PdS2,-0.28,-0.3448397313333326,-0.3254211515146939
Pd4S,-0.14,-0.2237470664,-0.1308415705323142
PtO,-0.37,-0.3991707600000005,-0.2313093339488006
PtO2,-0.57,-0.6330938133333367,-0.5167519889366687
PtS,-0.42,-0.5183882060000009,-0.3737141277436571
PtS2,-0.38,-0.4307100913333339,-0.3452847306631431
Pt3O4,-0.4,-0.5759645928571453,-0.4301829960864601
RbCl,-2.26,-2.2072378725000004,-2.2287278175183314
RbF,-2.89,-2.88939678,-2.8818916271154222
RbSb,-0.52,-0.5756617949999985,-0.5112679045184869
RbSb2,-0.35,-0.4163757933333301,-0.3094783334749991
Rb2O,-1.17,-1.0866106966666678,-1.1242543680700952
Rb2O2,-1.22,-1.1626297000000019,-1.1875367982806715
Rb2S,-1.25,-1.2029353440000012,-1.256037247266666
Rb3Sb,-0.45,-0.5102840549999996,-0.5096455185837172
RhCl3,-0.78,-0.8518325212499995,-0.7807612372289139
RhO2,-0.85,-0.9847598800000009,-0.9012666815257641
Rh2O3,-0.84,-0.9256975260000019,-0.8281662120484384
Rh2S3,-0.54,-0.6058557852000007,-0.536149288602266
ScAs,-1.39,-1.6013077950000003,-1.5052079150337256
ScCl3,-2.4,-2.409122301250001,-2.3972628819803443
ScF3,-4.22,-4.2806797125000005,-4.22532764637598
Sc2O3,-3.94,-3.9187145360000004,-3.9159222056507246
SiO2,-3.13,-3.0564191599999995,-3.0691161366843054
SiS2,-0.88,-0.7488998913333328,-0.7925133317441156
SiSe2,-0.61,-0.5176536300000004,-0.5210696979762256
Si3N4,-1.1,-1.3528021614285717,-1.1339001190850493
SnO,-1.48,-1.4340207400000011,-1.4625320999733376
SnO2,-1.97,-1.9571388933333342,-1.9717122596196905
SnS,-0.57,-0.481479341,-0.5331780487681925
SnS2,-0.53,-0.4938751513333344,-0.5393649813461655
SnSe,-0.47,-0.46085059500000014,-0.482401273442278
SnSe2,-0.43,-0.44155602000000016,-0.446848477578276
SrO,-3.07,-3.016673214999999,-3.1061702887900644
SrO2,-2.19,-2.1334837233333324,-2.1887142321641755
SrS,-2.45,-2.452395200999998,-2.5650796225849213
Sr2Bi,-1.08,-0.9335117333333329,-1.0217475505517513
Sr2Sb,-1.11,-1.0542490499999981,-1.1184786962411668
TaN,-1.3,-1.3934210200000017,-1.2657305384308835
TaS2,-1.22,-1.1620583446666661,-1.2428463077127485
TiAs,-0.78,-1.0391649999999988,-0.8999306460849485
TiCl4,-1.7,-1.7594853020000003,-1.7287165914823077
TiN,-1.58,-1.9180490250000002,-1.6656007522942051
TiO2,-3.26,-3.209762646666666,-3.1764622852284865
TiS,-1.41,-1.6027829009999994,-1.5826710171813883
TiS2,-1.41,-1.4308596280000003,-1.4284757302882956
Ti2O3,-3.15,-3.116819726,-3.0795198164917026
VF4,-2.91,-3.029561402,-2.9332552483923395
VN,-1.13,-1.3491436950000004,-1.0488322061809185
VO,-2.24,-2.20609707,-2.114934622273246
VO2,-2.47,-2.5805840766666677,-2.5153749044862956
V2O3,-2.53,-2.6094890979999987,-2.533898615601076
V2O5,-2.29,-2.3564424671428577,-2.2986485165471686
YAs,-1.68,-1.8409120649999977,-1.7344315886051547
YCl3,-2.59,-2.614952338750001,-2.5979026212660585
YF3,-4.45,-4.5223135075,-4.461771143161693
Y2O3,-3.95,-3.9423409840000003,-3.9312441765078687
ZnCl2,-1.43,-1.4702635600000005,-1.4379250780478163
ZnF2,-2.64,-2.8113958133333337,-2.740397200843937
ZnO,-1.81,-1.936360445000001,-1.9013383391402048
ZnP2,-0.21,-0.3429445693333335,-0.35757742972872464
ZnS,-1.07,-1.0811987060000003,-1.0693639479350612
ZnSb,-0.08,-0.0894228799999972,0.03490021462198101
ZnSe,-0.85,-0.9378371399999992,-0.8958543526091436
ZnTe,-0.61,-0.6199033000000007,-0.5395032677005425
Zn3As2,-0.28,-0.29034175000000034,-0.17422764934449902
Zn3N2,-0.05,-0.31809165399999983,-0.11140641831190265
Zn3P2,-0.33,-0.3436149515999986,-0.32969803158443794
ZrN,-1.89,-2.0089731099999995,-1.9077180287710789
ZrO2,-3.8,-3.800097626666665,-3.8675927262130685
ZrS2,-1.96,-1.7821836913333324,-1.880595254606213