Chemical Formula,Experimental Enthalpy (eV),"Calculated Enthalpy (uncorrected, eV)",FERE Corrected Enthalpy (eV)
Ag2O,-0.11,-0.17912479000000067,-0.11092707298759545
Ag2O2,-0.06,-0.18119138499999998,-0.1336816360931774
Ag2S,-0.11,-0.13191420066666618,-0.08227283618040815
Ag2Se,-0.15,-0.15019350666666753,-0.07855790937442227
AlAs,-0.61,-0.6282580800000002,-0.7237870372403279
AlCl3,-1.82,-1.7647652487500007,-1.8406987401044788
AlF3,-3.9,-3.903045795,-3.921369128926874
AlN,-1.61,-1.7121695399999997,-1.7038930467276074
AlP,-0.85,-0.7384366294999998,-0.96532303718819
Al2O3,-3.47,-3.37442919,-3.5224861089334234
Al2S3,-1.5,-1.2373395971999996,-1.4187979506804893
Al2Se3,-1.18,-1.008525963999999,-1.1503946984297087
Al2Te3,-0.68,-0.5604062459999994,-0.6568934701126153
AuCl,-0.18,-0.3169494524999976,-0.12340809607412595
AuCl3,-0.3,-0.3892710487500004,-0.2850708540702698
AuF3,-0.94,-1.14503545,-0.9832250978926655
BaO,-2.86,-2.7308910650000016,-2.8208398908352734
BaO2,-2.19,-2.078325460000002,-2.1431427290268226
BaS,-2.38,-2.371662661000002,-2.4894460156244946
BeO,-3.14,-3.0109017885,-3.0982094133496183
BeS,-1.21,-1.2067089895,-1.32185114313884
Be3N2,-1.22,-1.2605675561999987,-1.2106585924682052
CaCl2,-2.75,-2.7106642900000004,-2.7921183091267623
CaF2,-4.21,-4.26354314,-4.293788130302226
CaO,-3.29,-3.2485882949999993,-3.392905434328692
CaS,-2.45,-2.435296731,-2.6074483991179145
Ca3N2,-0.91,-0.9804604339999983,-0.9989628876430942
Ca3P2,-1.22,-0.8645092055999996,-1.0711419800115607
CdCl2,-1.35,-1.3400217066666684,-1.3673715471789052
CdF2,-2.42,-2.4978626266666666,-2.474003438354367
CdO,-1.34,-1.2663398799999985,-1.329500751406906
CdS,-0.78,-0.7808579109999982,-0.8718533111961264
CdSb,-0.07,-0.1076644050000013,-0.09116445346580093
CdSe,-0.75,-0.7548625799999975,-0.8128666309871448
CdTe,-0.48,-0.5678292399999982,-0.5880153657228995
Cd3As2,-0.08,-0.17700276200000076,-0.18116205454712714
Cd3N2,0.33,0.4008675260000018,0.4797525938630514
Cd3P2,-0.24,-0.1286168876000005,-0.23786214050541615
CoF2,-2.39,-2.684546826666667,-2.3527264668936376
CoF3,-2.1,-2.3756144125,-2.10383099862763
CoO,-1.23,-1.7047749299999992,-1.3059940442158098
CoS,-0.43,-0.7886950959999997,-0.41774873900503096
CoSb3,-0.17,-0.29315197249999514,0.018452627098792362
CoSe,-0.32,-0.6873634849999988,-0.28342577879604747
Co3O4,-1.32,-1.6779373242857147,-1.3382043015292544
Co3S4,-0.53,-0.8576211640000001,-0.5496990312883655
CrF4,-2.58,-2.7720836120000003,-2.512343579243118
CrN,-0.65,-1.2543487650000014,-0.6059118100668517
CrO2,-2.07,-2.361610393333334,-2.060643210572335
CrS,-0.81,-1.3078444410000003,-0.8769511179427631
Cr2O3,-2.36,-2.7561341119999994,-2.392062661604817
CuF2,-1.88,-1.8955800566666667,-1.8690302185238548
CuO,-0.82,-0.8151846650000003,-0.8743095616611338
CuS,-0.28,-0.2911519309999999,-0.378111356450356
CuSe,-0.21,-0.2035819950000004,-0.2575500712413721
Cu2O,-0.58,-0.5309407433333343,-0.6049225537448729
Cu2S,-0.28,-0.2304615339999998,-0.32299969693768676
Cu2Sb,-0.04,0.010809356666667233,-0.010065238450801909
Cu2Se,-0.21,-0.1288374266666684,-0.19938135679836697
Cu2Te,0.07,0.05583399666666603,0.010502016711131526
Cu3N,0.19,0.1852206625000008,0.19866494675660462
Cu3P,-0.17,-0.05539379224999941,-0.15953095847368637
Cu3Sb,-0.02,0.07646533499999997,0.034885479183811796
FeF2,-2.46,-3.050697436666668,-2.4326993658862777
FeO,-1.41,-2.1895657999999987,-1.3615183477047683
FeS,-0.52,-1.2547303309999993,-0.4545174074939897
FeSe,-0.39,-1.1385348949999994,-0.30533062228500896
Fe2O3,-1.71,-2.4131937679999993,-1.7536666372458
Fe3O4,-1.66,-2.369699735714287,-1.6620239416626492
GaAs,-0.37,-0.4554297149999993,-0.5681198294749201
GaCl3,-1.36,-1.2929089737499995,-1.3774230437217732
GaF3,-3.01,-2.8994886525000005,-2.9263925650441696
GaN,-0.81,-0.700220019999998,-0.7091046839621971
GaP,-0.53,-0.5124640194999994,-0.7565115844227801
GaS,-1.09,-0.7657985509999996,-0.9922268468381095
GaSb,-0.22,-0.2347527350000007,-0.3536856791077838
GaSe,-0.83,-0.6924441150000007,-0.8858810616291279
Ga2O3,-2.26,-2.1093217179999995,-2.271107562721096
Ga2S3,-1.07,-0.7988912331999998,-0.9940785124681625
Ga2Se3,-0.85,-0.702584084,-0.8581817442173844
GeO2,-2.0,-1.8554266166666669,-1.969205796909338
GeS,-0.39,-0.24289128600000076,-0.4341175074482688
GeS2,-0.66,-0.3891222479999996,-0.5400141332949673
GeSe,-0.48,-0.20001599499999934,-0.3582508672392848
Ge3N4,-0.09,-0.19361471428571317,-0.11893349809581164
HfN,-1.91,-1.975518454999996,-1.864400337104172
HfO2,-3.95,-3.9231544000000014,-3.9803997752638858
HgCl2,-0.77,-0.7477785333333339,-0.7762532371680445
HgO,-0.47,-0.3803597700000019,-0.4452079363906165
HgS,-0.3,-0.17119181099999992,-0.2638745061798353
HgSe,-0.24,-0.23742205000000283,-0.2971133959708574
HgTe,-0.22,-0.19255088500000284,-0.21442430570660775
InAs,-0.31,-0.3720087549999995,-0.2977049675908141
InN,-0.1,-0.10481233500000009,0.07329690292190882
InP,-0.39,-0.3192503895000005,-0.37630405253867494
InS,-0.7,-0.6744722260000007,-0.7139066199540043
InSb,-0.16,-0.2332694499999981,-0.16520849222367673
InSe,-0.62,-0.6742751200000008,-0.6807181647450236
InTe,-0.5,-0.3982113500000004,-0.3668364694807771
In2O3,-1.92,-1.90541846,-1.9176091832138114
In2S3,-0.74,-0.7387345732,-0.7843267309608762
In2Se3,-0.67,-0.6839042679999977,-0.6899068067100984
In2Te3,-0.41,-0.4380598780000014,-0.39868090639300247
IrO2,-0.95,-0.9797913766666682,-0.918609726344016
IrS2,-0.48,-0.5305039180000032,-0.5064349727296454
Ir2S3,-0.49,-0.5344139672000011,-0.4914865902779013
KCl,-2.26,-2.2062294099999997,-2.206069335203427
KF,-2.94,-2.9179420425,-2.8793751960850242
KSb,-0.43,-0.5689838074999969,-0.503869503934073
KSb2,-0.37,-0.3919537783333311,-0.30028841246528515
K2O,-1.25,-1.1565602866666655,-1.1711042606969346
K2O2,-1.28,-1.1797898824999997,-1.1943364018751819
K2S,-1.31,-1.2333552073333334,-1.2664555338897496
K2S2,-1.12,-1.0874674984999997,-1.1298485466644035
K2Se,-1.36,-1.281735206666666,-1.2928413004170938
K3As,-0.48,-0.4496685662500006,-0.42125944132082616
K3Bi,-0.6,-0.4982964312500009,-0.4937357996047851
K3Sb,-0.47,-0.5438391387500001,-0.5185514286372594
K5Sb4,-0.44,-0.5725319605555576,-0.5162680110903403
LaCl3,-2.78,-2.8230847412499998,-2.734563350432053
LaN,-1.57,-1.6581828650000006,-1.3209966073827601
LaS,-2.36,-2.4645916009999986,-2.3449489752586707
La2O3,-3.72,-3.803500828,-3.688429935457543
La2S3,-2.51,-2.5665375552,-2.484868097204611
La2Te3,-1.63,-1.9243280980000008,-1.7576875106367367
LiCl,-2.12,-2.057609191,-2.0864747377669923
LiF,-3.19,-3.1974442235000007,-3.18790299864859
Li2O,-2.07,-2.011526541333334,-2.0647713441150217
Li2O2,-1.64,-1.571402076,-1.614974216938747
Li2S,-1.52,-1.5017445586666665,-1.5735457139745026
Li2Se,-1.45,-1.430568911333334,-1.4803758338351816
Li3Bi,-0.6,-0.611916797750002,-0.6508945984501331
Li3N,-0.43,-0.47501218525000066,-0.43823876740981405
Li3Sb,-0.83,-0.7358903652499986,-0.7541410874826049
MgCl2,-2.21,-2.1450755400000006,-2.1897799649312475
MgF2,-3.88,-3.878816366666667,-3.872311762773378
MgO,-3.11,-3.039588085,-3.128780833035421
MgS,-1.79,-1.6652898660000002,-1.7823171428246427
MgSe,-1.52,-1.4748481350000002,-1.5588840626156593
MgTe,-1.08,-1.0568540950000003,-1.103072097351415
Mg3As2,-0.91,-0.7937854579999992,-0.8291830025013439
Mg3Bi2,-0.32,-0.289235044000003,-0.3627901777556758
Mg3N2,-0.96,-0.9928365799999994,-0.9451897640911675
Mg3P2,-0.96,-0.8138350435999996,-0.9543185484596343
Mg3Sb2,-0.49,-0.5039678019999982,-0.5443596102076341
MnO,-2.0,-2.631177840000001,-1.9396372171966885
MnS,-1.11,-1.771840761,-1.1081346669859098
MnS2,-0.72,-1.0901213913333336,-0.6710583996533946
MnSb,-0.26,-0.854140189999999,-0.08293874425557846
Mn2O3,-1.99,-2.5703539019999995,-2.0200322348393343
Mn3O4,-2.05,-2.656149997142857,-2.065480056941433
NaCl,-2.13,-2.1157673074999996,-2.0773356251520783
NaF,-2.97,-3.0617665700000005,-2.984928116033676
NaSb,-0.33,-0.46607932999999946,-0.362693418882726
NaTe3,-0.35,-0.48426380249999923,-0.41521621759086713
Na2O,-1.43,-1.4595044300000002,-1.423019593961803
Na2O2,-1.32,-1.31471478,-1.2909896918238335
Na2S,-1.26,-1.3015034373333332,-1.2835749538212842
Na2S2,-1.03,-1.0312803484999993,-1.0353897891130543
Na2Se,-1.18,-1.297199853333333,-1.257277137015296
Na2Se2,-0.97,-1.0219408800000007,-0.9930589714040732
Na3As,-0.53,-0.5764780074999996,-0.4906614712438033
Na3Bi,-0.46,-0.5145925150000004,-0.452624472027761
Na3Sb,-0.53,-0.5919494350000001,-0.5092543135602341
NbN,-1.22,-1.29138777,-1.144876021771971
NbO2,-2.75,-2.731824186666666,-2.76547380837575
Nb2O5,-2.81,-2.786494482857143,-2.8174161808092015
NiF2,-2.25,-2.460830323333333,-2.369572459601907
NiO,-1.24,-1.396626835000001,-1.3586896932782135
NiS,-0.43,-0.5611884210000007,-0.5510858080674357
NiSb,-0.34,-0.34911191499999816,-0.23151395033710642
NiSe,-0.31,-0.42881135500000056,-0.38571739285845297
NiTe,-0.28,-0.2727074800000011,-0.19179559259420742
Ni2O3,-1.01,-0.9955060759999995,-0.968067193704556
Ni2Te3,-0.3,-0.24413183799999844,-0.16512326088374607
Ni3P,-0.54,-0.5623006022499997,-0.520844710899306
Ni3S2,-0.42,-0.5396102228000004,-0.5134424446832497
PdCl2,-0.69,-0.687149420000002,-0.612958465136586
PdO,-0.44,-0.6804254949999997,-0.591275173343428
PdS,-0.39,-0.493946575999999,-0.43263078313264813
PdS2,-0.28,-0.362619128000001,-0.34514967041788697
Pd4S,-0.14,-0.2626323804000009,-0.1223931840192222
PtO,-0.37,-0.4710120499999988,-0.26317685785442535
PtO2,-0.57,-0.6616502799999987,-0.5279448703729249
PtS,-0.42,-0.5597194209999969,-0.3797187576436478
PtS2,-0.38,-0.44417619133333136,-0.3475834867585519
Pt3O4,-0.4,-0.600714032857143,-0.42464874750521225
RbCl,-2.26,-2.2072378725000004,-2.2210468043232368
RbF,-2.89,-2.88939678,-2.8647989402048335
RbSb,-0.52,-0.5756617949999985,-0.524516498053881
RbSb2,-0.35,-0.4163757933333301,-0.33402309854515977
Rb2O,-1.17,-1.0866106966666678,-1.1197800128566797
Rb2O2,-1.22,-1.1626297000000019,-1.1911452259949922
Rb2S,-1.25,-1.2029353440000012,-1.2546610127161604
Rb3Sb,-0.45,-0.5102840549999996,-0.5059498548169685
RhCl3,-0.78,-0.9096213312499994,-0.78578185656459
RhO2,-0.85,-1.0261676800000004,-0.885610183626324
Rh2O3,-0.84,-1.0203807779999976,-0.848800951269601
Rh2S3,-0.54,-0.656381643200001,-0.5182032510166692
ScAs,-1.39,-1.5801031349999999,-1.5427361008160219
ScCl3,-2.4,-2.405383368750001,-2.414868864392325
ScF3,-4.22,-4.2550141175,-4.2068894557147205
Sc2O3,-3.94,-3.8670093260000002,-3.908749451793979
SiO2,-3.13,-3.0564191599999995,-3.0600821916406176
SiS2,-0.88,-0.7488998913333328,-0.7896756280262464
SiSe2,-0.61,-0.5176536300000004,-0.514440901080936
Si3N4,-1.1,-1.3528021614285717,-1.1365430398931713
SnO,-1.48,-1.4340207400000011,-1.4523423847961254
SnO2,-1.97,-1.9571388933333342,-1.9742047083340566
SnS,-0.57,-0.481479341,-0.5276355145853451
SnS2,-0.53,-0.4938751513333344,-0.548053671386351
SnSe,-0.47,-0.46085059500000014,-0.4740154193763644
SnSe2,-0.43,-0.44155602000000016,-0.45174607444104
SrO,-3.07,-3.016673214999999,-3.1050509723836353
SrO2,-2.19,-2.1334837233333324,-2.197253613392398
SrS,-2.45,-2.452395200999998,-2.568607487172857
Sr2Bi,-1.08,-0.9335117333333329,-1.0210262473708365
Sr2Sb,-1.11,-1.0542490499999981,-1.1141274594141375
TaN,-1.3,-1.3761297299999988,-1.2534694573149494
TaS2,-1.22,-1.1643570513333354,-1.2510203617900306
TiAs,-0.78,-1.024977765000001,-0.8977228123305618
TiCl4,-1.7,-1.7548523579999995,-1.7235137805329572
TiN,-1.58,-1.8686285299999987,-1.637568126817838
TiO2,-3.26,-3.2105894800000008,-3.187873331739661
TiS,-1.41,-1.5730905760000002,-1.5595738046937502
TiS2,-1.41,-1.4566483979999987,-1.4710449547919555
Ti2O3,-3.15,-3.106764883999999,-3.076594675005609
VF4,-2.91,-3.0890988359999993,-2.9213668666079613
VN,-1.13,-1.332549629999999,-0.9141328334789591
VO,-2.24,-2.54157571,-2.31286801656565
VO2,-2.47,-2.6283848899999995,-2.48076447951374
V2O3,-2.53,-2.803420154,-2.6233648303345034
V2O5,-2.29,-2.361825631428573,-2.2373730160703382
YAs,-1.68,-1.8379777050000001,-1.7478538129588799
YCl3,-2.59,-2.6247487437500006,-2.6078558104637555
YF3,-4.45,-4.532165375000001,-4.457662284286151
Y2O3,-3.95,-3.926687359999998,-3.9262219995082632
ZnCl2,-1.43,-1.4702635600000005,-1.4291693023434842
ZnF2,-2.64,-2.8113958133333337,-2.7190925268522803
ZnO,-1.81,-1.936360445000001,-1.896855169153774
ZnP2,-0.21,-0.3429445693333335,-0.3820641677376801
ZnS,-1.07,-1.0811987060000003,-1.0695279589429951
ZnSb,-0.08,-0.0894228799999972,0.02974321878733477
ZnSe,-0.85,-0.9378371399999992,-0.8931750437340114
ZnTe,-0.61,-0.6199033000000007,-0.5374232784697668
Zn3As2,-0.28,-0.29034175000000034,-0.17130166584336876
Zn3N2,-0.05,-0.31809165399999983,-0.1160072094331909
Zn3P2,-0.33,-0.3436149515999986,-0.32966082780165634
ZrN,-1.89,-1.9937331549999975,-1.8677955062794176
ZrO2,-3.8,-3.8306865700000023,-3.8780522580473806
ZrS2,-1.96,-1.8122723446666669,-1.896750737766342